version 2
run General-0-20140519-09:31:13-5253
attr configname General
attr datetime 20140519-09:31:13
attr experiment General
attr inifile omnetpp.ini
attr iterationvars ""
attr iterationvars2 $repetition=0
attr measurement ""
attr network WSN
attr processid 5253
attr repetition 0
attr replication #0
attr resultdir results
attr runnumber 0
attr seedset 0

vector 2  WSN.statistic  networkEnergy:vector  ETV
attr title  "Node energy, vector"
vector 3  WSN.statistic  sensorEnergy:vector  ETV
attr title  "Sensor energy, vector"
2	198	0	2352
2	1578	1	2351.923462
2	3155	2	2351.846924
2	4820	3	2351.770386
2	7006	4	2351.693848
2	8595	5	2351.61731
2	10172	6	2351.540772
2	12843	7	2351.4640641148
2	15435	8	2351.3873562295
2	17629	9	2351.310670694
2	20832	10	2351.2337705739
2	26542	11	2351.156553033
2	28860	12	2351.0798451477
2	34305	13	2351.0025279028
2	41144	14	2350.9250886525
2	49333	15	2350.8472677617
2	55861	16	2350.7697729727
2	66677	17	2350.6915314062
2	78891	18	2350.6130960944
2	90187	19	2350.5346819001
2	103166	20	2350.4560285828
2	123905	21	2350.3759591817
2	134726	22	2350.297782713
2	152024	23	2350.2182852582
2	178256	24	2350.1371579238
2	199670	25	2350.0570775428
2	220092	26	2349.9770884927
2	246713	27	2349.8957433996
2	280796	28	2349.813224222
2	302919	29	2349.7328148729
2	329130	30	2349.6517619697
2	354056	31	2349.5708620991
2	395122	32	2349.4869418535
2	419711	33	2349.4061865681
2	450785	34	2349.3242120927
2	485291	35	2349.2414567552
2	521330	36	2349.1584921856
2	557468	37	2349.0754895875
2	588485	38	2348.9935289278
2	628157	39	2348.909962819
2	659999	40	2348.8277067595
2	704483	41	2348.7431758465
2	737207	42	2348.6610024953
2	773090	43	2348.5780581133
2	819412	44	2348.4931026422
2	856417	45	2348.4101714305
2	891259	46	2348.3273924625
2	927502	47	2348.2445138249
2	967052	48	2348.1610811956
2	1004072	49	2348.0778613001
2	1041998	50	2347.9947402439
2	1079367	51	2347.9115592228
2	1114306	52	2347.8286736429
2	1148140	53	2347.7463186836
2	1183452	54	2347.663583803
2	1214310	55	2347.5816027031
2	1248743	56	2347.4989615661
2	1290905	57	2347.414982174
2	1321543	58	2347.3329574207
2	1350349	59	2347.2514694744
2	1380313	60	2347.1697963557
2	1421152	61	2347.0857922184
2	1451159	62	2347.0040683028
2	1483668	63	2346.9218259887
2	1507336	64	2346.8412040126
2	1542158	65	2346.7585606481
2	1570520	66	2346.6770995092
2	1598833	67	2346.5956346144
2	1626579	68	2346.5142872032
2	1655823	69	2346.4326339214
2	1680633	70	2346.3519227412
2	1701560	71	2346.2717763358
2	1728168	72	2346.1905580924
2	1756122	73	2346.109051232
2	1779015	74	2346.0287066426
2	1809559	75	2345.9468547007
2	1829309	76	2345.8669272746
2	1856913	77	2345.7856179754
2	1877041	78	2345.7056817894
2	1901795	79	2345.6248696022
2	1932527	80	2345.5429837893
2	1958922	81	2345.4619682899
2	1986419	82	2345.3806112257
2	2013843	83	2345.2993237438
2	2033831	84	2345.2193342128
2	2053781	85	2345.1394441873
2	2083022	86	2345.0576196237
2	2119137	87	2344.9748185495
2	2150297	88	2344.8929636358
2	2167527	89	2344.8134944382
2	2189950	90	2344.7331058231
2	2216228	91	2344.6519875915
2	2239038	92	2344.5714818465
2	2263172	93	2344.4907924448
2	2291889	94	2344.409470571
2	2320029	95	2344.3276201377
2	2349187	96	2344.2378235779
2	2369169	97	2344.1576752316
2	2391011	98	2344.0774607935
2	2424678	99	2343.9951548568
2	2446969	100	2343.9148689187
2	2472131	101	2343.8341288257
2	2498865	102	2343.7529988164
2	2527587	103	2343.6672101294
2	2554703	104	2343.586027241
2	2579510	105	2343.5018669523
2	2607290	106	2343.4181596407
2	2633276	107	2343.3371070901
2	2655453	108	2343.2568914636
2	2679951	109	2343.1762544016
2	2703150	110	2343.0957218957
2	2723509	111	2343.0157850939
2	2748798	112	2342.9352046284
2	2778072	113	2342.8503897352
2	2799420	114	2342.7671228835
2	2824278	115	2342.6865019353
2	2841363	116	2342.6071523085
2	2868865	117	2342.5259108398
2	2889346	118	2342.4459688302
2	2915260	119	2342.364949678
2	2942330	120	2342.2838282809
2	2963125	121	2342.1988141378
2	2987618	122	2342.1171451434
2	3013181	123	2342.0362473557
2	3034906	124	2341.9561189477
2	3053093	125	2341.8766554826
2	3075925	126	2341.7963905838
2	3098035	127	2341.7162065601
2	3114559	128	2341.6368794118
2	3131126	129	2341.557607931
2	3147444	130	2341.4784061215
2	3170011	131	2341.395850948
2	3191775	132	2341.3120013672
2	3209842	133	2341.2325579282
2	3229629	134	2341.1527015647
2	3249145	135	2341.0729072469
2	3269368	136	2340.9930704098
2	3284762	137	2340.9140437342
2	3305184	138	2340.833876246
2	3325922	139	2340.7512446
2	3346058	140	2340.6680665457
2	3362409	141	2340.5888498397
2	3383209	142	2340.5089102594
2	3400668	143	2340.4294893175
2	3418303	144	2340.3500244022
2	3436714	145	2340.2703460589
2	3453306	146	2340.1912323623
2	3479858	147	2340.0987040981
2	3495285	148	2340.019696973
2	3508333	149	2339.9409834717
2	3524936	150	2339.8618145139
2	3543337	151	2339.7821811613
2	3564580	152	2339.6959386378
2	3576538	153	2339.6174229626
2	3592102	154	2339.5384405902
2	3611898	155	2339.4585365286
2	3626618	156	2339.3795869978
2	3638830	157	2339.3012059731
2	3660661	158	2339.2210051361
2	3678473	159	2339.1414951759
2	3697467	160	2339.0618167214
2	3717935	161	2338.9820202409
2	3740447	162	2338.9017067025
2	3760368	163	2338.8217972931
2	3775895	164	2338.7421618199
2	3798584	165	2338.6568101096
2	3804920	166	2338.5794631997
2	3821632	167	2338.5001073542
2	3839463	168	2338.4205129419
2	3857441	169	2338.3409458084
2	3876453	170	2338.2613270972
2	3896588	171	2338.173646806
2	3913319	172	2338.0903494448
2	3930208	173	2338.0110215617
2	3950883	174	2337.9311069164
2	3972746	175	2337.8509801039
2	3994557	176	2337.770738852
2	4017130	177	2337.6903721883
2	4036084	178	2337.6107624144
2	4049923	179	2337.5321382041
2	4062770	180	2337.4536013638
2	4078589	181	2337.3744370019
2	4092961	182	2337.2955540799
2	4113112	183	2337.2156399731
2	4124334	184	2337.1373652667
2	4146013	185	2337.0571431125
2	4163393	186	2336.9776769405
2	4178543	187	2336.8986488939
2	4197269	188	2336.8188714402
2	4211974	189	2336.7400170407
2	4230612	190	2336.6603721908
2	4254212	191	2336.5800754822
2	4270168	192	2336.5009152536
2	4287324	193	2336.421748932
2	4297443	194	2336.3435559159
2	4317691	195	2336.2636287308
2	4335109	196	2336.1842509545
2	4351820	197	2336.1049723171
2	4366406	198	2336.0261062449
2	4388627	199	2335.9458919504
2	4405043	200	2335.8666985753
2	4418052	201	2335.7880416512
2	4435506	202	2335.702749764
2	4445162	203	2335.6248343059
2	4466836	204	2335.5446507844
2	4489556	205	2335.4644109914
2	4504176	206	2335.3854519172
2	4519044	207	2335.3065020646
2	4531945	208	2335.2277924072
2	4548069	209	2335.1488052788
2	4561766	210	2335.0700382874
2	4576640	211	2334.9909022177
2	4587667	212	2334.9126647341
2	4604489	213	2334.8333226025
2	4615114	214	2334.7551689101
2	4632297	215	2334.6756329886
2	4641330	216	2334.597841562
2	4657550	217	2334.5185957171
2	4670446	218	2334.4399413023
2	4689359	219	2334.3602582681
2	4706244	220	2334.2809016367
2	4715412	221	2334.2030315492
2	4727517	222	2334.1245148908
2	4745575	223	2334.0449393452
2	4758739	224	2333.9662941063
2	4767336	225	2333.8884783531
2	4780190	226	2333.8098777987
2	4796828	227	2333.7306711604
2	4815997	228	2333.6510833919
2	4829864	229	2333.5719863667
2	4838238	230	2333.4942500229
2	4849991	231	2333.4158261347
2	4867087	232	2333.3365615902
2	4879346	233	2333.2581503349
2	4895464	234	2333.1789542998
2	4904478	235	2333.1011261693
2	4916866	236	2333.0226590502
2	4931744	237	2332.9437311935
2	4943940	238	2332.8653266234
2	4961759	239	2332.7814417394
2	4978829	240	2332.7011334342
2	4992703	241	2332.6224622125
2	5008305	242	2332.5433775957
2	5022573	243	2332.4645727359
2	5037514	244	2332.3855268811
2	5048844	245	2332.3071996046
2	5060330	246	2332.2288522547
2	5075544	247	2332.1497615409
2	5090842	248	2332.070744208
2	5105437	249	2331.9917855543
2	5113238	250	2331.9141885048
2	5129310	251	2331.8348692464
2	5145582	252	2331.7558415409
2	5158277	253	2331.677232174
2	5167896	254	2331.5992544236
2	5180692	255	2331.5207012009
2	5192730	256	2331.4423571657
2	5210891	257	2331.3628693718
2	5222722	258	2331.2845147708
2	5237700	259	2331.2055395377
2	5246611	260	2331.1276105672
2	5254029	261	2331.050038892
2	5268196	262	2330.9712296743
2	5277905	263	2330.8932458572
2	5295075	264	2330.8137916577
2	5310398	265	2330.7348641282
2	5320814	266	2330.6567388278
2	5333762	267	2330.5781891933
2	5343507	268	2330.5001739891
2	5352699	269	2330.4222457772
2	5365424	270	2330.3437158559
2	5377790	271	2330.2653239505
2	5388975	272	2330.1870326755
2	5400150	273	2330.1088065897
2	5409262	274	2330.0309075133
2	5418737	275	2329.952911051
2	5427951	276	2329.8751419737
2	5439520	277	2329.7968288391
2	5448713	278	2329.7189407986
2	5454876	279	2329.6415037915
2	5467343	280	2329.5631334047
2	5476987	281	2329.4851764996
2	5483642	282	2329.4077338066
2	5492498	283	2329.3298595816
2	5497760	284	2329.2526775448
2	5504149	285	2329.1752754682
2	5513236	286	2329.0975091814
2	5523871	287	2329.0193023339
2	5534778	288	2328.9412166305
2	5545910	289	2328.8629665199
2	5562814	290	2328.7835687942
2	5570718	291	2328.7058699441
2	5582741	292	2328.6273222342
2	5590438	293	2328.5496774314
2	5602882	294	2328.4713314403
2	5611110	295	2328.393495941
2	5623569	296	2328.3149528281
2	5632448	297	2328.2371899307
2	5640914	298	2328.1594242361
2	5647991	299	2328.0820181019
2	5651770	300	2328.0051596562
2	5664195	301	2327.9207289425
2	5674561	302	2327.8425169533
2	5686405	303	2327.7641935923
2	5698124	304	2327.6858648652
2	5708779	305	2327.6077359971
2	5716666	306	2327.5300929354
2	5725423	307	2327.4523362097
2	5738575	308	2327.3738310611
2	5756350	309	2327.2890171253
2	5764331	310	2327.2112978126
2	5778584	311	2327.1317658492
2	5793256	312	2327.0464934533
2	5805626	313	2326.9681115157
2	5817383	314	2326.8898118917
2	5831409	315	2326.8109820081
2	5842234	316	2326.7328079244
2	5854826	317	2326.6543152702
2	5862301	318	2326.5768500013
2	5871084	319	2326.4990117867
2	5890255	320	2326.4193862555
2	5902974	321	2326.3409244967
2	5917340	322	2326.262093975
2	5929119	323	2326.1838027228
2	5939201	324	2326.1057993653
2	5953872	325	2326.0200181822
2	5963715	326	2325.9406351595
2	5980254	327	2325.8587868001
2	5997675	328	2325.7761351067
2	6011321	329	2325.6973589456
2	6019036	330	2325.6197131732
2	6026161	331	2325.5421459727
2	6037288	332	2325.4639472023
2	6051762	333	2325.384960655
2	6063597	334	2325.306495285
2	6073482	335	2325.2285160404
2	6083330	336	2325.1503643499
2	6094063	337	2325.072250358
2	6102474	338	2324.9944375178
2	6111308	339	2324.9164470823
2	6123119	340	2324.8322980242
2	6133090	341	2324.754130042
2	6144139	342	2324.675855177
2	6165926	343	2324.5917632391
2	6178466	344	2324.5116123111
2	6187188	345	2324.4336900843
2	6195316	346	2324.3560684121
2	6211982	347	2324.2768249932
2	6223988	348	2324.1983458304
2	6233270	349	2324.1204205523
2	6246368	350	2324.0417280455
2	6261057	351	2323.9569849093
2	6272249	352	2323.8786201935
2	6281611	353	2323.8006309124
2	6292560	354	2323.7223483235
2	6303841	355	2323.6440497088
2	6312984	356	2323.5660828832
2	6325088	357	2323.4876394553
2	6335795	358	2323.4095516435
2	6348479	359	2323.3309399713
2	6358196	360	2323.2528644352
2	6370408	361	2323.1743045165
2	6378184	362	2323.0966041122
2	6393027	363	2323.017781455
2	6400378	364	2322.9402174933
2	6410495	365	2322.862063428
2	6421995	366	2322.7837644005
2	6428210	367	2322.7062988275
2	6433841	368	2322.6290176531
2	6442642	369	2322.5511907641
2	6455721	370	2322.4726434398
2	6464884	371	2322.394714805
2	6478364	372	2322.3160025618
2	6486822	373	2322.2380989498
2	6497608	374	2322.1599176182
2	6509889	375	2322.081503391
2	6517292	376	2322.0039024721
2	6527733	377	2321.9258523051
2	6539702	378	2321.8474329008
2	6550596	379	2321.7692613686
2	6559807	380	2321.691362518
2	6576361	381	2321.6122693274
2	6589697	382	2321.5336513753
2	6598218	383	2321.4557168739
2	6613560	384	2321.3765965398
2	6622035	385	2321.2986750842
2	6628484	386	2321.2213114866
2	6638896	387	2321.1430931915
2	6650122	388	2321.0648141258
2	6657718	389	2320.9872559731
2	6669095	390	2320.9089512817
2	6681010	391	2320.8304843675
2	6690894	392	2320.7524312476
2	6697492	393	2320.6749445959
2	6706818	394	2320.5970237932
2	6719445	395	2320.5186284219
2	6729907	396	2320.4405583293
2	6741657	397	2320.3621726937
2	6751462	398	2320.2840786191
2	6758707	399	2320.2066730653
2	6765107	400	2320.1293350542
2	6771776	401	2320.0519170367
2	6783157	402	2319.9735999954
2	6795979	403	2319.8949141841
2	6802656	404	2319.8174504828
2	6816774	405	2319.7363910981
2	6831142	406	2319.6554550127
2	6841519	407	2319.5772997206
2	6856437	408	2319.4982927052
2	6868793	409	2319.4198409995
2	6879620	410	2319.341658606
2	6887510	411	2319.2640151548
2	6899326	412	2319.1855514819
2	6906949	413	2319.1079807892
2	6913902	414	2319.0304913072
2	6928572	415	2318.9517586069
2	6938418	416	2318.8736993795
2	6945211	417	2318.7960795185
2	6958483	418	2318.7174122698
2	6971845	419	2318.6388195821
2	6978714	420	2318.5613299477
2	6987215	421	2318.4835684156
2	6998389	422	2318.4053547895
2	7003721	423	2318.3281763658
2	7012148	424	2318.2504604333
2	7021686	425	2318.1724599744
2	7030971	426	2318.0944896786
2	7035952	427	2318.0172527826
2	7052230	428	2317.9381241983
2	7064922	429	2317.8596411516
2	7074475	430	2317.781646794
2	7084090	431	2317.7036927926
2	7089180	432	2317.6265474219
2	7096052	433	2317.5489785485
2	7109043	434	2317.4703661158
2	7116500	435	2317.3927994574
2	7128602	436	2317.3144725265
2	7141709	437	2317.2358548339
2	7151624	438	2317.157763209
2	7157842	439	2317.0804140069
2	7162730	440	2317.0033191716
2	7170530	441	2316.925591975
2	7181415	442	2316.8473664812
2	7189233	443	2316.7696174503
2	7195833	444	2316.6921911842
2	7206392	445	2316.6139765331
2	7213757	446	2316.5364656103
2	7223132	447	2316.4585469691
2	7231355	448	2316.380760251
2	7239848	449	2316.3029709367
2	7246199	450	2316.2256483149
2	7255016	451	2316.147825566
2	7264427	452	2316.0697967439
2	7270079	453	2315.9925330735
2	7282145	454	2315.9140917469
2	7292838	455	2315.8360276425
2	7302182	456	2315.7582107309
2	7315431	457	2315.6796100782
2	7324721	458	2315.6017352783
2	7333481	459	2315.523903477
2	7339296	460	2315.4466528351
2	7350045	461	2315.3684468758
2	7357135	462	2315.2908016524
2	7362298	463	2315.2137169465
2	7371923	464	2315.1358282881
2	7381274	465	2315.0579309749
2	7392676	466	2314.9796503414
2	7398117	467	2314.902405458
2	7406871	468	2314.8246048698
2	7414932	469	2314.7468893879
2	7422796	470	2314.6691885632
2	7428811	471	2314.5917929178
2	7434259	472	2314.5145494648
2	7441824	473	2314.4369347782
2	7449870	474	2314.3591845002
2	7454368	475	2314.2821899989
2	7464669	476	2314.2042004453
2	7471395	477	2314.1267434864
2	7479078	478	2314.0490833513
2	7494085	479	2313.9701485837
2	7505572	480	2313.891940035
2	7519516	481	2313.8131289721
2	7527932	482	2313.7353450336
2	7534224	483	2313.6580906295
2	7540127	484	2313.5808549571
2	7549267	485	2313.5031056478
2	7559372	486	2313.4250803241
2	7564892	487	2313.347680569
2	7571252	488	2313.2703166174
2	7579486	489	2313.1926409782
2	7590634	490	2313.1143041119
2	7598175	491	2313.0365687158
2	7605412	492	2312.9589997773
2	7609336	493	2312.882100606
2	7617919	494	2312.8036369555
2	7627566	495	2312.720516146
2	7635269	496	2312.6427868946
2	7641521	497	2312.5653740695
2	7647013	498	2312.4881564079
2	7655836	499	2312.4102766264
2	7665779	500	2312.3321534125
2	7674697	501	2312.2542961389
2	7680465	502	2312.1770703787
2	7687400	503	2312.0995240686
2	7693106	504	2312.0222708685
2	7699974	505	2311.9448118664
2	7706870	506	2311.8673179117
2	7713217	507	2311.7899323387
2	7722285	508	2311.7120896076
2	7728600	509	2311.6346105786
2	7733457	510	2311.5574664778
2	7743821	511	2311.4794795173
2	7751422	512	2311.4017201216
2	7759330	513	2311.3239989842
2	7768461	514	2311.2462732696
2	7771328	515	2311.1694986326
2	7777335	516	2311.0920894835
2	7782776	517	2311.0149017866
2	7793771	518	2310.9366257799
2	7799618	519	2310.8592616983
2	7807367	520	2310.7816879483
2	7814069	521	2310.7042927275
2	7822551	522	2310.6266137182
2	7829412	523	2310.5491707729
2	7837042	524	2310.4715888036
2	7844569	525	2310.3939856955
2	7852269	526	2310.3164346223
2	7857969	527	2310.2391353398
2	7868637	528	2310.1608806141
2	7878971	529	2310.0828224287
2	7884532	530	2310.0056400254
2	7891271	531	2309.9281346975
2	7894973	532	2309.851209006
2	7900340	533	2309.7740588787
2	7908127	534	2309.6965103311
2	7912791	535	2309.619475572
2	7922090	536	2309.5415162778
2	7930352	537	2309.4638938658
2	7938020	538	2309.3863124789
2	7944824	539	2309.3089205835
2	7952095	540	2309.2312359773
2	7959622	541	2309.1536447882
2	7967384	542	2309.0761105855
2	7972767	543	2308.9989707305
2	7978207	544	2308.9217830542
2	7985607	545	2308.8441816116
2	7987241	546	2308.7676353923
2	7992686	547	2308.6904768806
2	7996346	548	2308.6135196346
2	8008422	549	2308.5351079388
2	8015893	550	2308.4574894154
2	8028654	551	2308.3790275726
2	8036363	552	2308.3014407842
2	8042249	553	2308.2241678444
2	8051629	554	2308.1462863275
2	8059987	555	2308.0685426923
2	8064899	556	2307.9913169321
2	8071218	557	2307.9138436007
2	8074857	558	2307.8369422995
2	8079520	559	2307.7598646431
2	8086882	560	2307.6823130293
2	8093566	561	2307.6048595006
2	8097584	562	2307.5279282158
2	8103562	563	2307.4506948329
2	8111824	564	2307.3730504505
2	8116677	565	2307.2959741287
2	8121824	566	2307.2187754949
2	8127839	567	2307.1414374351
2	8131726	568	2307.0645079951
2	8138830	569	2306.9869740288
2	8140903	570	2306.9103581095
2	8149835	571	2306.8325993455
2	8160976	572	2306.754464161
2	8163244	573	2306.6778203754
2	8168485	574	2306.6006298259
2	8172712	575	2306.5236351746
2	8178153	576	2306.4464579238
2	8185395	577	2306.3689414196
2	8190328	578	2306.291830616
2	8195890	579	2306.2145448123
2	8202970	580	2306.1370288081
2	8208474	581	2306.0598017271
2	8212440	582	2305.9829132471
2	8217004	583	2305.9058491528
2	8225506	584	2305.8282431603
2	8236279	585	2305.7500487987
2	8240744	586	2305.6729524427
2	8245639	587	2305.5958733348
2	8252248	588	2305.518394591
2	8260188	589	2305.440775979
2	8268806	590	2305.3594911939
2	8276567	591	2305.2809249326
2	8284937	592	2305.2032646615
2	8289847	593	2305.1260389013
2	8294411	594	2305.0490064487
2	8297894	595	2304.9721141223
2	8300448	596	2304.8953980177
2	8306096	597	2304.8180858038
2	8311891	598	2304.7408215471
2	8316622	599	2304.6637587279
2	8323758	600	2304.5862518549
2	8331279	601	2304.5086731671
2	8336800	602	2304.4314607981
2	8342680	603	2304.354139158
2	8346315	604	2304.2772852342
2	8348793	605	2304.2005788073
2	8354600	606	2304.123333891
2	8362792	607	2304.0456055133
2	8366353	608	2303.9687082627
2	8372308	609	2303.8913208366
2	8377341	610	2303.8141092585
2	8387584	611	2303.7360345658
2	8389684	612	2303.6594191438
2	8394709	613	2303.582205907
2	8400928	614	2303.5048491016
2	8409504	615	2303.4269959667
2	8416396	616	2303.3496021142
2	8421491	617	2303.2723742992
2	8429699	618	2303.194714489
2	8438587	619	2303.1168092032
2	8443677	620	2303.0396851902
2	8449416	621	2302.9623856191
2	8455034	622	2302.8851642754
2	8459950	623	2302.8080932056
2	8463525	624	2302.7311670535
2	8470861	625	2302.6536807433
2	8476883	626	2302.5763056457
2	8481277	627	2302.4992434231
2	8485647	628	2302.4222048485
2	8492384	629	2302.3447687467
2	8497759	630	2302.2676276937
2	8503084	631	2302.190443852
2	8509347	632	2302.1131152482
2	8514061	633	2302.0360595176
2	8518546	634	2301.9589451273
2	8522715	635	2301.8818892523
2	8527243	636	2301.8048033278
2	8533064	637	2301.7276028953
2	8537937	638	2301.6504984856
2	8544749	639	2301.5730862419
2	8546380	640	2301.4965400226
2	8553439	641	2301.4188901558
2	8558050	642	2301.3417503008
2	8563281	643	2301.2645848679
2	8567934	644	2301.1874768849
2	8574229	645	2301.1100894587
2	8577535	646	2301.0332116883
2	8580147	647	2300.956503803
2	8587742	648	2300.8788573694
2	8592282	649	2300.8017186766
2	8596851	650	2300.7246710209
2	8603927	651	2300.6471360984
2	8613114	652	2300.5691997223
2	8618270	653	2300.491900651
2	8628154	654	2300.4138977122
2	8632620	655	2300.3368346814
2	8636230	656	2300.2599472333
2	8644946	657	2300.1822047912
2	8648936	658	2300.1051641618
2	8654644	659	2300.0278627705
2	8658575	660	2299.9509086427
2	8662109	661	2299.8740308723
2	8665822	662	2299.7971275822
2	8672607	663	2299.7196251812
2	8679567	664	2299.6420502696
2	8685467	665	2299.5647962803
2	8689255	666	2299.4878521081
2	8696743	667	2299.4103619828
2	8704202	668	2299.3328359387
2	8708970	669	2299.2558344839
2	8715502	670	2299.1783696228
2	8721272	671	2299.1010897913
2	8727342	672	2299.0237714191
2	8733647	673	2298.9464648473
2	8738740	674	2298.8693078739
2	8747260	675	2298.79165282
2	8754278	676	2298.7141047746
2	8766891	677	2298.6298333764
2	8770539	678	2298.5529231603
2	8777364	679	2298.4755090963
2	8781888	680	2298.3984598642
2	8791961	681	2298.320322195
2	8797225	682	2298.2431046541
2	8804855	683	2298.1654309465
2	8812169	684	2298.0879553092
2	8825002	685	2298.0094721658
2	8833013	686	2297.931724026
2	8836549	687	2297.8548456039
2	8846286	688	2297.7768389989
2	8852961	689	2297.6993393848
2	8857594	690	2297.6222875001
2	8866183	691	2297.5445438649
2	8875445	692	2297.4667475558
2	8884245	693	2297.3889700905
2	8891074	694	2297.3115047514
2	8895365	695	2297.2345029619
2	8904852	696	2297.1566017835
2	8915491	697	2297.0783693017
2	8920626	698	2297.0011682836
2	8925033	699	2296.9241478528
2	8932639	700	2296.8465167817
2	8940194	701	2296.7689163427
2	8945665	702	2296.69168283
2	8951969	703	2296.6143289282
2	8958274	704	2296.5369116198
2	8965242	705	2296.4593830736
2	8972872	706	2296.3817294229
2	8980620	707	2296.3041243262
2	8986402	708	2296.2267724408
2	8989930	709	2296.1499235981
2	8998434	710	2296.0721889635
2	9004612	711	2295.9947850987
2	9013295	712	2295.9169943322
2	9018417	713	2295.8398769481
2	9030124	714	2295.7615179605
2	9034517	715	2295.6844620855
2	9037089	716	2295.6077613562
2	9044439	717	2295.5302252354
2	9047556	718	2295.4534124437
2	9052289	719	2295.3763222413
2	9061324	720	2295.2984260544
2	9066466	721	2295.221226564
2	9074128	722	2295.1436770956
2	9083516	723	2295.0658559262
2	9090346	724	2294.9883736833
2	9094951	725	2294.9113402127
2	9102960	726	2294.83367963
2	9111932	727	2294.7506239723
2	9122612	728	2294.6724678217
2	9129134	729	2294.5950756105
2	9137797	730	2294.5173384505
2	9146724	731	2294.4395981008
2	9152167	732	2294.3623730809
2	9156025	733	2294.2854966177
2	9165005	734	2294.2076170778
2	9169614	735	2294.130544499
2	9179983	736	2294.0524357915
2	9185472	737	2293.9751992379
2	9192789	738	2293.897543424
2	9197501	739	2293.8203807007
2	9205969	740	2293.7426494365
2	9210940	741	2293.6655929749
2	9215270	742	2293.5885924993
2	9219612	743	2293.5115679808
2	9224360	744	2293.434463243
2	9227605	745	2293.3576732266
2	9232078	746	2293.2806000273
2	9237072	747	2293.2034817069
2	9245401	748	2293.1257535616
2	9250803	749	2293.0485702459
2	9258241	750	2292.9709268996
2	9262493	751	2292.893896977
2	9268645	752	2292.8166180652
2	9273648	753	2292.7394404996
2	9279756	754	2292.6622364041
2	9285729	755	2292.5849036406
2	9292181	756	2292.5075602811
2	9303329	757	2292.4292896443
2	9309104	758	2292.3520227896
2	9315059	759	2292.2746443923
2	9322906	760	2292.1969623751
2	9328674	761	2292.1196418615
2	9336595	762	2292.0419319323
2	9347237	763	2291.9638071346
2	9354721	764	2291.8861980494
2	9359547	765	2291.80911299
2	9365776	766	2291.7318040357
2	9373742	767	2291.6541103634
2	9382197	768	2291.5763195969
2	9389345	769	2291.4988242428
2	9395134	770	2291.4215608641
2	9398292	771	2291.3447156395
2	9406629	772	2291.2670910489
2	9412993	773	2291.1896938702
2	9419464	774	2291.1122492403
2	9426855	775	2291.0345459033
2	9432989	776	2290.9572233343
2	9439229	777	2290.8798276889
2	9444168	778	2290.8026646731
2	9447798	779	2290.7257911725
2	9455535	780	2290.6481090085
2	9463450	781	2290.5705269045
2	9470233	782	2290.4930695778
2	9480334	783	2290.414999677
2	9483752	784	2290.3381219065
2	9487789	785	2290.2611579962
2	9493368	786	2290.1838920674
2	9498193	787	2290.1067064758
2	9502023	788	2290.0297726406
2	9504378	789	2289.9530946473
2	9508928	790	2289.876066832
2	9516572	791	2289.7984994144
2	9521591	792	2289.7213346
2	9530015	793	2289.6437081235
2	9533662	794	2289.5666910886
2	9536339	795	2289.4899443633
2	9544037	796	2289.4122315686
2	9551636	797	2289.3346516361
2	9554706	798	2289.2578572491
2	9559380	799	2289.1807179906
2	9565734	800	2289.1033223452
2	9569266	801	2289.0264445747
2	9575178	802	2288.949110041
2	9581675	803	2288.871683308
2	9586241	804	2288.7946114632
2	9591494	805	2288.71735521
2	9594357	806	2288.6405074637
2	9597807	807	2288.5635966775
2	9600644	808	2288.4868506874
2	9605231	809	2288.4097153365
2	9611845	810	2288.3322675252
2	9619988	811	2288.2546585306
2	9624213	812	2288.1776543111
2	9628768	813	2288.1005832601
2	9637410	814	2288.0228243368
2	9647583	815	2287.944656594
2	9653608	816	2287.8673731713
2	9663098	817	2287.7893971878
2	9666262	818	2287.7125964642
2	9672520	819	2287.6352695505
2	9680815	820	2287.5576163238
2	9685563	821	2287.480498144
2	9690929	822	2287.4033045747
2	9698171	823	2287.3258004429
2	9703181	824	2287.2486216871
2	9721300	825	2287.1585242325
2	9723901	826	2287.0817984407
2	9730890	827	2287.004334562
2	9739710	828	2286.9264473717
2	9749754	829	2286.8485547314
2	9755219	830	2286.7713332753
2	9762204	831	2286.693787246
2	9773629	832	2286.6155795174
2	9780545	833	2286.5380845364
2	9787968	834	2286.4605358582
2	9800736	835	2286.3819681729
2	9810395	836	2286.3039147343
2	9819093	837	2286.226057023
2	9828269	838	2286.1482234176
2	9838732	839	2286.0701259094
2	9848337	840	2285.9920980651
2	9855615	841	2285.9146465033
2	9865396	842	2285.8365824529
2	9871741	843	2285.7591872743
2	9878298	844	2285.6817940119
2	9889212	845	2285.6035429001
2	9895086	846	2285.5261832946
2	9900872	847	2285.4489108807
2	9905682	848	2285.371797552
2	9912035	849	2285.2943192592
2	9921785	850	2285.2163577228
2	9927263	851	2285.1391324681
2	9933903	852	2285.0616869163
2	9942018	853	2284.9840711512
2	9951766	854	2284.9060591288
2	9961319	855	2284.8281121931
2	9966047	856	2284.7509961003
2	9970716	857	2284.6739349398
2	9979668	858	2284.5960133297
2	9986805	859	2284.5185007163
2	9988544	860	2284.4419380584
2	9996379	861	2284.3643679582
2	10004459	862	2284.2866639918
2	10010064	863	2284.2093797912
2	10017505	864	2284.1318712816
2	10024469	865	2284.0543785494
2	10033698	866	2283.976485581
2	10040913	867	2283.8989282696
2	10044389	868	2283.8220753173
2	10049545	869	2283.7448973484
2	10056976	870	2283.6672068459
2	10069377	871	2283.588671921
2	10073554	872	2283.5116885305
2	10081118	873	2283.4341078899
2	10087583	874	2283.356773727
2	10098231	875	2283.2742182818
2	10109233	876	2283.1945891512
2	10117680	877	2283.11683547
2	10122648	878	2283.039681828
2	10133570	879	2282.9615519596
2	10137208	880	2282.8846577505
2	10140629	881	2282.80777998
2	10145274	882	2282.7306544038
2	10147772	883	2282.6539465186
2	10157806	884	2282.5758452101
2	10162387	885	2282.4988043214
2	10170888	886	2282.4210580395
2	10177968	887	2282.343609012
2	10185272	888	2282.2660643065
2	10192169	889	2282.188651319
2	10202371	890	2282.1106929072
2	10207004	891	2282.0336229051
2	10215027	892	2281.9559268497
2	10223729	893	2281.8780084538
2	10229798	894	2281.8006443325
2	10237777	895	2281.7230301015
2	10248205	896	2281.6449214723
2	10253946	897	2281.5676308526
2	10260565	898	2281.4901772718
2	10267982	899	2281.4120451081
2	10278250	900	2281.3300936273
2	10284712	901	2281.2526815432
2	10291119	902	2281.1752776785
2	10293462	903	2281.0986155498
2	10298509	904	2281.0213944485
2	10309632	905	2280.9432306126
2	10315830	906	2280.8659365306
2	10322763	907	2280.7884831711
2	10331607	908	2280.7106620692
2	10336696	909	2280.6335412043
2	10344045	910	2280.5561003811
2	10349442	911	2280.4788746208
2	10354762	912	2280.4016757039
2	10361320	913	2280.3243519308
2	10368300	914	2280.2468670674
2	10378167	915	2280.1670723105
2	10390044	916	2280.0846443022
2	10394987	917	2280.0074164871
2	10400063	918	2279.930235662
2	10410293	919	2279.8522404807
2	10416448	920	2279.7748687195
2	10422090	921	2279.6976187623
2	10426875	922	2279.6205301646
2	10429488	923	2279.5438222794
2	10431402	924	2279.4672355791
2	10435516	925	2279.3901879234
2	10440912	926	2279.3129746616
2	10445365	927	2279.2359270059
2	10452686	928	2279.1583774468
2	10457855	929	2279.081209587
2	10460624	930	2279.0044627416
2	10466696	931	2278.9270753154
2	10470751	932	2278.8500194404
2	10475373	933	2278.7729635654
2	10481110	934	2278.6957127826
2	10485797	935	2278.6185877521
2	10494747	936	2278.5407720337
2	10501150	937	2278.4633681689
2	10506593	938	2278.386094646
2	10509832	939	2278.3092564189
2	10518595	940	2278.2314962096
2	10524161	941	2278.1542556707
2	10528657	942	2278.0771622785
2	10536272	943	2277.9995203905
2	10540726	944	2277.9224727349
2	10544417	945	2277.8455703065
2	10546439	946	2277.768940456
2	10551198	947	2277.6917810114
2	10557994	948	2277.6142919198
2	10565347	949	2277.5366672656
2	10567846	950	2277.4599593804
2	10572308	951	2277.3829071744
2	10579109	952	2277.3053430481
2	10582692	953	2277.228451985
2	10587032	954	2277.1514043293
2	10590648	955	2277.0745265588
2	10597922	956	2276.9969610282
2	10604696	957	2276.9193966902
2	10608631	958	2276.8423812786
2	10614273	959	2276.7650829831
2	10622701	960	2276.6873037558
2	10627966	961	2276.6101035352
2	10633946	962	2276.5326548536
2	10636975	963	2276.4559025066
2	10639639	964	2276.3791864021
2	10643920	965	2276.3021753122
2	10649080	966	2276.2249010067
2	10651939	967	2276.1481322968
2	10658586	968	2276.0700608991
2	10672730	969	2275.9862104928
2	10677419	970	2275.9091628371
2	10682598	971	2275.832029354
2	10692053	972	2275.7542655327
2	10703039	973	2275.670782244
2	10711884	974	2275.5923957736
2	10719918	975	2275.5118700925
2	10727704	976	2275.4342963426
2	10737250	977	2275.3563751584
2	10743834	978	2275.278969774
2	10748228	979	2275.2019116012
2	10757222	980	2275.1240684952
2	10762832	981	2275.0468100761
2	10769552	982	2274.9693509924
2	10777631	983	2274.8916772005
2	10786659	984	2274.8137946621
2	10793361	985	2274.7362450084
2	10799194	986	2274.6589978691
2	10808039	987	2274.5811858588
2	10811826	988	2274.5042542102