version 2
run General-0-20140630-00:59:26-25675
attr configname General
attr datetime 20140630-00:59:26
attr experiment General
attr inifile omnetpp.ini
attr iterationvars ""
attr iterationvars2 $repetition=0
attr measurement ""
attr network WSN
attr processid 25675
attr repetition 0
attr replication #0
attr resultdir results
attr runnumber 0
attr seedset 0

vector 3  WSN.statistic  sensorEnergy:vector  ETV
attr title  "Sensor energy, vector"
vector 4  WSN.statistic  sensorEnergyLevel:vector  ETV
attr title  "Sensor energy (level), vector"
3	15830657	3540	3.1568117808468
3	15830657	3540	3.1567952318956
3	15830657	3540	3.1500389984067
3	15830657	3540	3.1606292308265
3	15830657	3540	3.1498656903311
3	15830657	3540	3.1150096087792
3	15830657	3540	3.146388955033
3	15830657	3540	3.1511887737934
3	15830657	3540	3.1519855901167
3	15830657	3540	3.1550846329201
3	15830657	3540	3.157233785099
3	15830657	3540	3.1582540030497
3	15830657	3540	3.1569170937458
3	15830657	3540	3.1506313456554
3	15830657	3540	3.1518707536061
3	15830657	3540	3.1514143762558
3	15830657	3540	3.1404648430725
3	15830657	3540	3.1316140250714
3	15830657	3540	3.1546833677225
3	15830657	3540	3.156136274564
3	15830657	3540	3.1538952469194
3	15830657	3540	3.1540639037189
3	15830657	3540	3.1575595191479
3	15830657	3540	3.1585275301484
3	15830657	3540	3.2050382838014
3	15830657	3540	3.1585778911725
3	15830657	3540	3.151678142506
3	15830657	3540	3.1522813333215
3	15830657	3540	3.1419736520224
3	15830657	3540	3.1453782415255
3	15830657	3540	3.1413422191866
3	15830657	3540	3.1553164320767
3	15830657	3540	3.1555158846229
3	15830657	3540	3.1545182723345
3	15830657	3540	3.1664329817259
3	15830657	3540	3.2060537450108
3	15830657	3540	3.2014994942645
3	15830657	3540	3.1589225534368
3	15830657	3540	3.1512379810286
3	15830657	3540	3.1430607488766
3	15830657	3540	3.1470391710286
3	15830657	3540	3.1548700542768
3	15830657	3540	3.1547847833767
3	15830657	3540	3.1426843590231
3	15830657	3540	3.1460998748909
3	15830657	3540	3.1462352572246
3	15830657	3540	3.1538841762347
3	15830657	3540	3.1670848565761
3	15830657	3540	3.1629835876953
3	15830657	3540	3.1522223507365
3	15830657	3540	3.152482646977
3	15830657	3540	3.1450872198344
3	15830657	3540	3.1578604485217
3	15830657	3540	3.1505600115063
3	15830657	3540	3.1552696301733
3	15830657	3540	3.152618329876
3	15830657	3540	3.1605550627213
3	15830657	3540	3.1485524069383
3	15830657	3540	3.1551143311379
3	15830657	3540	3.1664405827266
3	15830657	3540	3.157869702838
3	15830657	3540	3.1515097129883
3	15830657	3540	3.1514413633237
3	15830657	3540	3.1467538755768
3	15830657	3540	3.1594131075456
3	15830657	3540	3.1514019424897
3	15830657	3540	3.155405798936
3	15830657	3540	3.1549754184123
3	15830657	3540	3.1606587046192
3	15830657	3540	3.1518166452378
3	15830657	3540	3.1493621902417
3	15830657	3540	3.1609095299345
3	15830657	3540	3.1578697028376
3	15830657	3540	3.1521797053396
3	15830657	3540	3.1502662427383
3	15830657	3540	3.1515826766997
3	15830657	3540	3.1608916797863
3	15830657	3540	3.1540501252887
3	15830657	3540	3.1525560178384
3	15830657	3540	3.153733790027
3	15830657	3540	3.1578321035862
3	15830657	3540	3.1521958289881
3	15830657	3540	3.1474264814398
3	15830657	3540	3.1622980904463
3	15830657	3540	3.1579317576963
3	15830657	3540	3.1523500358042
3	15830657	3540	3.1504218855482
3	15830657	3540	3.1512627997682
3	15830657	3540	3.1617515013434
3	15830657	3540	3.1548905424234
3	15830657	3540	3.1536202485762
3	15830657	3540	3.1542080650238
3	15830657	3540	3.1578321035863
3	15830657	3540	3.1512831380883
3	15830657	3540	3.1615096797463
3	15830657	3540	3.160113175298
3	15830657	3540	3.1630258264386
3	15830657	3540	3.1525861355471
3	15830657	3540	3.1532438403662
3	15830657	3540	3.1522616070632
3	15830657	3540	3.1617614086544
3	15830657	3540	3.1552434961224
3	15830657	3540	3.1534995181738
3	15830657	3540	3.1606922569107
3	15830657	3540	3.163009987454
3	15830657	3540	3.1736221867887
3	15830657	3540	3.1632397125035
3	15830657	3540	3.1614696994238
3	15830657	3540	3.1631208670222
3	15830657	3540	3.1535957288624
3	15830657	3540	3.152911502462
3	15830657	3540	3.1699097408086
3	15830657	3540	3.1631050284142
3	15830657	3540	3.2044086962165
3	15830657	3540	3.1601473621033
3	15830657	3540	3.1604884407546
3	15830657	3540	3.1629043862363
3	15830657	3540	3.1746896207988
3	15830657	3540	3.1635057797549
3	15830657	3540	3.1624786384549
3	15830657	3540	3.1629941447678
3	15830657	3540	3.1569779648561
3	15830657	3540	3.1696692573953
3	15830657	3540	3.1700568491503
3	15830657	3540	3.1629360674768
3	15830657	3540	3.1987789958493
3	15830657	3540	3.1612183644745
3	15830657	3540	3.1608658100188
3	15830657	3540	3.1630997477097
3	15830657	3540	3.1558884395875
3	15830657	3540	3.1559638748371
3	15830657	3540	3.1559765770875
3	15830657	3540	3.1625581933547
3	15830657	3540	3.1574308392563
3	15830657	3540	3.1573273716054
3	15830657	3540	3.1698737671954
3	15830657	3540	3.1630786293556
3	15830657	3540	3.1994179847502
3	15830657	3540	3.1997015553992
3	15830657	3540	3.1616383609755
3	15830657	3540	3.1631103078582
3	15830657	3540	3.1562298993884
3	15830657	3540	3.156291549987
3	15830657	3540	3.1564394950383
4	15830657	3540	35
4	15830657	3540	35
4	15830657	3540	35
4	15830657	3540	35
4	15830657	3540	34
4	15830657	3540	34
4	15830657	3540	34
4	15830657	3540	35
4	15830657	3540	35
4	15830657	3540	35
4	15830657	3540	35
4	15830657	3540	35
4	15830657	3540	35
4	15830657	3540	35
4	15830657	3540	35
4	15830657	3540	35
4	15830657	3540	34
4	15830657	3540	34
4	15830657	3540	35
4	15830657	3540	35
4	15830657	3540	35
4	15830657	3540	35
4	15830657	3540	35
4	15830657	3540	35
4	15830657	3540	35
4	15830657	3540	35
4	15830657	3540	35
4	15830657	3540	35
4	15830657	3540	34
4	15830657	3540	34
4	15830657	3540	34
4	15830657	3540	35
4	15830657	3540	35
4	15830657	3540	35
4	15830657	3540	35
4	15830657	3540	35
4	15830657	3540	35
4	15830657	3540	35
4	15830657	3540	35
4	15830657	3540	34
4	15830657	3540	34
4	15830657	3540	35
4	15830657	3540	35
4	15830657	3540	34
4	15830657	3540	34
4	15830657	3540	34
4	15830657	3540	35
4	15830657	3540	35
4	15830657	3540	35
4	15830657	3540	35
4	15830657	3540	35
4	15830657	3540	34
4	15830657	3540	35
4	15830657	3540	35
4	15830657	3540	35
4	15830657	3540	35
4	15830657	3540	35
4	15830657	3540	34
4	15830657	3540	35
4	15830657	3540	35
4	15830657	3540	35
4	15830657	3540	35
4	15830657	3540	35
4	15830657	3540	34
4	15830657	3540	35
4	15830657	3540	35
4	15830657	3540	35
4	15830657	3540	35
4	15830657	3540	35
4	15830657	3540	35
4	15830657	3540	34
4	15830657	3540	35
4	15830657	3540	35
4	15830657	3540	35
4	15830657	3540	35
4	15830657	3540	35
4	15830657	3540	35
4	15830657	3540	35
4	15830657	3540	35
4	15830657	3540	35
4	15830657	3540	35
4	15830657	3540	35
4	15830657	3540	34
4	15830657	3540	35
4	15830657	3540	35
4	15830657	3540	35
4	15830657	3540	35
4	15830657	3540	35
4	15830657	3540	35
4	15830657	3540	35
4	15830657	3540	35
4	15830657	3540	35
4	15830657	3540	35
4	15830657	3540	35
4	15830657	3540	35
4	15830657	3540	35
4	15830657	3540	35
4	15830657	3540	35
4	15830657	3540	35
4	15830657	3540	35
4	15830657	3540	35
4	15830657	3540	35
4	15830657	3540	35
4	15830657	3540	35
4	15830657	3540	35
4	15830657	3540	35
4	15830657	3540	35
4	15830657	3540	35
4	15830657	3540	35
4	15830657	3540	35
4	15830657	3540	35
4	15830657	3540	35
4	15830657	3540	35
4	15830657	3540	35
4	15830657	3540	35
4	15830657	3540	35
4	15830657	3540	35
4	15830657	3540	35
4	15830657	3540	35
4	15830657	3540	35
4	15830657	3540	35
4	15830657	3540	35
4	15830657	3540	35
4	15830657	3540	35
4	15830657	3540	35
4	15830657	3540	35
4	15830657	3540	35
4	15830657	3540	35
4	15830657	3540	35
4	15830657	3540	35
4	15830657	3540	35
4	15830657	3540	35
4	15830657	3540	35
4	15830657	3540	35
4	15830657	3540	35
4	15830657	3540	35
4	15830657	3540	35
4	15830657	3540	35
4	15830657	3540	35
4	15830657	3540	35
4	15830657	3540	35
4	15830657	3540	35
4	15830657	3540	35
4	15830657	3540	35
