version 2
run General-0-20140518-15:18:24-22047
attr configname General
attr datetime 20140518-15:18:24
attr experiment General
attr inifile omnetpp.ini
attr iterationvars ""
attr iterationvars2 $repetition=0
attr measurement ""
attr network WSN
attr processid 22047
attr repetition 0
attr replication #0
attr resultdir results
attr runnumber 0
attr seedset 0

vector 2  WSN.statistic  networkEnergy:vector  ETV
attr title  "Node energy, vector"
vector 3  WSN.statistic  sensorEnergy:vector  ETV
attr title  "Sensor energy, vector"
2	198	0	588000
2	1578	1	587999.923462
2	3155	2	587999.846924
2	4820	3	587999.770386
2	7006	4	587999.693848
2	8595	5	587999.61731
2	10172	6	587999.540772
2	12843	7	587999.46406412
2	15435	8	587999.38735623
2	17629	9	587999.3106707
2	20832	10	587999.23377057
2	26542	11	587999.15655303
2	28860	12	587999.07984515
2	34305	13	587999.0025279
2	41144	14	587998.92508865
2	49333	15	587998.84726776
2	55861	16	587998.76977297
2	66677	17	587998.6915314
2	78891	18	587998.6130961
2	90187	19	587998.5346819
2	103166	20	587998.45602858
2	123905	21	587998.37595918
2	133850	22	587998.29794765
2	151196	23	587998.21843222
2	174792	24	587998.13780903
2	195883	25	587998.05783651
2	217720	26	587997.97756614
2	242875	27	587997.89658347
2	276090	28	587997.81420172
2	298475	29	587997.73379998
2	328734	30	587997.65202303
2	355008	31	587997.57079626
2	393936	32	587997.48736214
2	416392	33	587997.40701976
2	453170	34	587997.32398661
2	495622	35	587997.23976403
2	517128	36	587997.15954342
2	559425	37	587997.07533006
2	593264	38	587996.99305498
2	635792	39	587996.90884907
2	666796	40	587996.82680916
2	707530	41	587996.74312456
2	744489	42	587996.66007354
2	787766	43	587996.57568781
2	824648	44	587996.49275017
2	865974	45	587996.40888339
2	903550	46	587996.32551071
2	944261	47	587996.24190302
2	975755	48	587996.15983847
2	1021393	49	587996.07494387
2	1062943	50	587995.99102352
2	1094819	51	587995.90900964
2	1130340	52	587995.82613088
2	1171297	53	587995.74220852
2	1206809	54	587995.65922058
2	1237180	55	587995.57753396
2	1272837	56	587995.49453088
2	1304712	57	587995.41230711
2	1340976	58	587995.32940891
2	1367892	59	587995.24811632
2	1403809	60	587995.16530782
2	1437485	61	587995.0825951
2	1471185	62	587995.00011449
2	1496945	63	587994.91916525
2	1530412	64	587994.8367384
2	1559151	65	587994.75524889
2	1586031	66	587994.67425661
2	1613353	67	587994.59283016
2	1641652	68	587994.51123232
2	1667606	69	587994.43030339
2	1692751	70	587994.34945471
2	1721060	71	587994.26794262
2	1748515	72	587994.18658386
2	1769636	73	587994.1064986
2	1798732	74	587994.02495957
2	1823399	75	587993.94409008
2	1841034	76	587993.86454764
2	1862152	77	587993.78438166
2	1892854	78	587993.70251193
2	1920426	79	587993.62115359
2	1943166	80	587993.54078295
2	1964538	81	587993.46067725
2	1999171	82	587993.37788943
2	2020140	83	587993.29764491
2	2042068	84	587993.21737058
2	2066485	85	587993.13678834
2	2093327	86	587993.05556184
2	2120608	87	587992.97430011
2	2146407	88	587992.89326239
2	2174916	89	587992.81151951
2	2201229	90	587992.73036694
2	2225739	91	587992.64981308
2	2245677	92	587992.56993453
2	2270098	93	587992.48929806
2	2293953	94	587992.40852488
2	2330135	95	587992.32009445
2	2353950	96	587992.23911642
2	2376329	97	587992.15882241
2	2399047	98	587992.07842024
2	2423517	99	587991.9975395
2	2452741	100	587991.91603175
2	2474148	101	587991.83576372
2	2497586	102	587991.75533173
2	2526421	103	587991.6737875
2	2551227	104	587991.59294369
2	2580612	105	587991.51136635
2	2595548	106	587991.43246405
2	2626429	107	587991.35053192
2	2652964	108	587991.26950795
2	2673616	109	587991.18952129
2	2691807	110	587991.10990172
2	2717377	111	587991.02906213
2	2738896	112	587990.948883
2	2761735	113	587990.86842213
2	2786438	114	587990.78761815
2	2803854	115	587990.70824199
2	2821906	116	587990.62862108
2	2836107	117	587990.5498008
2	2856449	118	587990.46988748
2	2884377	119	587990.38849713
2	2903331	120	587990.30875557
2	2917670	121	587990.22989673
2	2932921	122	587990.15086877
2	2949320	123	587990.07170216
2	2968680	124	587989.99195935
2	2988007	125	587989.91228099
2	3003338	126	587989.83324532
2	3024076	127	587989.75306394
2	3038930	128	587989.6740911
2	3056364	129	587989.59464437
2	3069462	130	587989.51615715
2	3080501	131	587989.43796556
2	3104126	132	587989.3574873
2	3119313	133	587989.27849306
2	3134101	134	587989.19952026
2	3147369	135	587989.12082187
2	3167113	136	587989.04109469
2	3178780	137	587988.962773
2	3196998	138	587988.88325848
2	3207863	139	587988.80507564
2	3220015	140	587988.7266266
2	3237621	141	587988.64726456
2	3254011	142	587988.56788683
2	3271437	143	587988.48855021
2	3292064	144	587988.40515909
2	3306437	145	587988.32389409
2	3318394	146	587988.2455098
2	3334998	147	587988.16625024
2	3351108	148	587988.08702953
2	3364903	149	587988.00821505
2	3378650	150	587987.92975051
2	3388755	151	587987.85168744
2	3406607	152	587987.77219405
2	3425530	153	587987.69238727
2	3442971	154	587987.61301554
2	3454968	155	587987.53476387
2	3468261	156	587987.45612262
2	3486664	157	587987.37648412
2	3506062	158	587987.29678206
2	3517961	159	587987.21851875
2	3538411	160	587987.13847976
2	3558002	161	587987.05811105
2	3577553	162	587986.97450464
2	3593538	163	587986.89540936
2	3607991	164	587986.81656858
2	3621041	165	587986.73790285
2	3635567	166	587986.65907682
2	3644406	167	587986.58125847
2	3663939	168	587986.50142751
2	3684806	169	587986.4214983
2	3693239	170	587986.34370282
2	3707845	171	587986.26476994
2	3726635	172	587986.1851022
2	3744441	173	587986.10565052
2	3759555	174	587986.02672262
2	3774914	175	587985.94774248
2	3792453	176	587985.86811127
2	3814647	177	587985.78195617
2	3827863	178	587985.70319919
2	3845192	179	587985.623742
2	3858715	180	587985.54497003
2	3877434	181	587985.46528037
2	3891845	182	587985.38651131
2	3903413	183	587985.30820065
2	3913435	184	587985.23009288
2	3931929	185	587985.15053742
2	3947486	186	587985.07158523
2	3966077	187	587984.9918953
2	3986943	188	587984.9118443
2	4003441	189	587984.83262972
2	4022022	190	587984.75292676
2	4037435	191	587984.67391892
2	4051807	192	587984.59509246
2	4069202	193	587984.5156995
2	4084233	194	587984.43678119
2	4105053	195	587984.35071764
2	4118644	196	587984.27202221
2	4133872	197	587984.19313824
2	4157947	198	587984.10779376
2	4176804	199	587984.02817804
2	4191931	200	587983.94935037
2	4214215	201	587983.86350024
2	4237426	202	587983.77942017
2	4253269	203	587983.70012059
2	4275522	204	587983.61978395
2	4298959	205	587983.53942095
2	4315185	206	587983.46020765
2	4336051	207	587983.37997877
2	4353102	208	587983.30061477
2	4375216	209	587983.22044378
2	4387426	210	587983.14198441
2	4404619	211	587983.0625622
2	4419345	212	587982.98358157
2	4433969	213	587982.90455601
2	4448381	214	587982.82570822
2	4465030	215	587982.74648832
2	4484777	216	587982.6665563
2	4504109	217	587982.58685086
2	4520873	218	587982.50735079
2	4534958	219	587982.42844611
2	4550907	220	587982.34935461
2	4566634	221	587982.27020597
2	4587110	222	587982.19018908
2	4596714	223	587982.11214883
2	4612048	224	587982.03295497
2	4627216	225	587981.95400243
2	4643601	226	587981.87476515
2	4656996	227	587981.7959798
2	4670220	228	587981.71724573
2	4683296	229	587981.63873292
2	4697100	230	587981.55989373
2	4715017	231	587981.48040101
2	4732566	232	587981.40119164
2	4749890	233	587981.32184745
2	4764773	234	587981.24288373
2	4776081	235	587981.16455664
2	4792281	236	587981.08532873
2	4808353	237	587981.00621176
2	4819197	238	587980.92802414
2	4834825	239	587980.84881589
2	4845300	240	587980.77059385
2	4865484	241	587980.69085806
2	4874392	242	587980.61305145
2	4885764	243	587980.53480283
2	4895107	244	587980.45686912
2	4905943	245	587980.37861952
2	4920130	246	587980.29987577
2	4932280	247	587980.22139081
2	4942059	248	587980.14331297
2	4958944	249	587980.06403877
2	4977006	250	587979.9787007
2	4989378	251	587979.90019116
2	5000401	252	587979.82195643
2	5015810	253	587979.74285882
2	5028231	254	587979.6643319
2	5039525	255	587979.58609247
2	5051129	256	587979.50775921
2	5069296	257	587979.42451177
2	5082549	258	587979.34530756
2	5096748	259	587979.26657747
2	5106657	260	587979.18854301
2	5118596	261	587979.11013866
2	5131290	262	587979.03157302
2	5145541	263	587978.95272055
2	5156558	264	587978.87439556
2	5169013	265	587978.79592497
2	5179824	266	587978.71767842
2	5190030	267	587978.63961294
2	5199492	268	587978.56168882
2	5212475	269	587978.48317509
2	5221847	270	587978.40524474
2	5233358	271	587978.32686816
2	5243192	272	587978.24884876
2	5257839	273	587978.17005281
2	5271286	274	587978.09137973
2	5278533	275	587978.01379894
2	5292453	276	587977.93511993
2	5305167	277	587977.85658251
2	5316521	278	587977.7783508
2	5325766	279	587977.7003423
2	5332650	280	587977.62290509
2	5341443	281	587977.54505979
2	5349907	282	587977.46729779
2	5357195	283	587977.38961036
2	5368541	284	587977.3114658
2	5376744	285	587977.2338135
2	5385207	286	587977.15605788
2	5390683	287	587977.07878629
2	5403800	288	587977.0001395
2	5411316	289	587976.92263665
2	5425782	290	587976.84384559
2	5438727	291	587976.75960128
2	5448833	292	587976.67921049
2	5457146	293	587976.60053946
2	5467100	294	587976.52262809
2	5474997	295	587976.44492826
2	5491578	296	587976.36573585
2	5500030	297	587976.28798762
2	5513381	298	587976.20943779
2	5524116	299	587976.13136322
2	5536092	300	587976.05300178
2	5545107	301	587975.97504681
2	5556741	302	587975.89576412
2	5571022	303	587975.81204401
2	5582076	304	587975.73377927
2	5596150	305	587975.65305271
2	5606036	306	587975.57184807
2	5623521	307	587975.47517833
2	5638159	308	587975.39169491
2	5647820	309	587975.31254088
2	5659703	310	587975.23412407
2	5671696	311	587975.15577477
2	5692584	312	587975.07020994
2	5705374	313	587974.99177415
2	5720274	314	587974.912889
2	5733790	315	587974.8342563
2	5742372	316	587974.75651874
2	5761735	317	587974.67683364
2	5773845	318	587974.59844698
2	5787559	319	587974.51986062
2	5807870	320	587974.43985352
2	5826448	321	587974.36024098
2	5846298	322	587974.28052123
2	5855928	323	587974.20260411
2	5875573	324	587974.12274064
2	5892172	325	587974.04360599
2	5900288	326	587973.96587172
2	5915829	327	587973.88684746
2	5930185	328	587973.80118589
2	5944907	329	587973.72237412
2	5964304	330	587973.63752258
2	5980359	331	587973.5577484
2	5990202	332	587973.47968567
2	6007055	333	587973.40043319
2	6018298	334	587973.3221751
2	6030637	335	587973.24372087
2	6040350	336	587973.16563803
2	6053039	337	587973.08703533
2	6068783	338	587973.00803313
2	6081437	339	587972.92939209
2	6098277	340	587972.85006758
2	6113277	341	587972.77113596
2	6128358	342	587972.69229107
2	6140541	343	587972.61400816
2	6156433	344	587972.53498173
2	6166699	345	587972.4569218
2	6180924	346	587972.37660392
2	6196162	347	587972.29324908
2	6206669	348	587972.2150605
2	6222118	349	587972.13612355
2	6231800	350	587972.05822395
2	6247421	351	587971.97908022
2	6259410	352	587971.90048228
2	6269864	353	587971.82238007
2	6282621	354	587971.74389971
2	6296174	355	587971.66519951
2	6311193	356	587971.58625137
2	6327616	357	587971.5070554
2	6339129	358	587971.42866959
2	6351504	359	587971.35011874
2	6363237	360	587971.2718345
2	6376126	361	587971.19326781
2	6390177	362	587971.11450208
2	6403262	363	587971.03584876
2	6421016	364	587970.95647313
2	6428736	365	587970.87897025
2	6439067	366	587970.80081208
2	6456719	367	587970.72133901
2	6469435	368	587970.64274639
2	6478770	369	587970.56479489
2	6491641	370	587970.48625666
2	6505044	371	587970.40757757
2	6514967	372	587970.32954361
2	6521330	373	587970.25214651
2	6529900	374	587970.17426409
2	6544293	375	587970.09540488
2	6553722	376	587970.01760687
2	6563442	377	587969.93954548
2	6579783	378	587969.86024591
2	6596482	379	587969.781002
2	6607354	380	587969.70275106
2	6618509	381	587969.62452145
2	6630466	382	587969.54609753
2	6643097	383	587969.46773919
2	6650989	384	587969.39005082
2	6663446	385	587969.31154584
2	6676671	386	587969.23304279
2	6689881	387	587969.15462136
2	6697845	388	587969.07688595
2	6710070	389	587968.99844374
2	6720669	390	587968.92025874
2	6733497	391	587968.84162552
2	6748308	392	587968.76267105
2	6760679	393	587968.6840935
2	6771741	394	587968.60583561
2	6786683	395	587968.52674659
2	6799762	396	587968.44822094
2	6810504	397	587968.3699991
2	6815817	398	587968.29154477
2	6831699	399	587968.20784352
2	6841746	400	587968.12404983
2	6854324	401	587968.04549133
2	6871354	402	587967.96620115
2	6880725	403	587967.8884237
2	6890938	404	587967.81042868
2	6898767	405	587967.73271438
2	6908223	406	587967.65482565
2	6915544	407	587967.5772738
2	6925107	408	587967.49923228
2	6940352	409	587967.42029631
2	6950870	410	587967.34217827
2	6960873	411	587967.26411925
2	6970967	412	587967.18595361
2	6977504	413	587967.10859916
2	6989102	414	587967.03019131
2	7001108	415	587966.95164403
2	7014694	416	587966.8729819
2	7026646	417	587966.79464533
2	7033152	418	587966.71728357
2	7046404	419	587966.63873239
2	7055952	420	587966.56092587
2	7064979	421	587966.48309659
2	7074012	422	587966.40512502
2	7084901	423	587966.32405787
2	7104174	424	587966.23554575
2	7111916	425	587966.15793572
2	7123581	426	587966.07958918
2	7141204	427	587965.99512608
2	7150026	428	587965.91734079
2	7161787	429	587965.83896226
2	7171708	430	587965.76093358
2	7182086	431	587965.68263751
2	7195995	432	587965.60394173
2	7206617	433	587965.52576915
2	7223547	434	587965.44653491
2	7230362	435	587965.36908856
2	7240234	436	587965.29113654
2	7248534	437	587965.21336987
2	7260501	438	587965.13490959
2	7273164	439	587965.05633039
2	7284047	440	587964.97814137
2	7300969	441	587964.89887721
2	7307988	442	587964.82140649
2	7319769	443	587964.74286973
2	7332285	444	587964.66445193
2	7339733	445	587964.58687717
2	7348405	446	587964.50901715
2	7361126	447	587964.43058229
2	7371353	448	587964.35250267
2	7379978	449	587964.27470258
2	7390409	450	587964.1966789
2	7406016	451	587964.1175915
2	7414563	452	587964.03976724
2	7422388	453	587963.96218251
2	7439793	454	587963.88286292
2	7454556	455	587963.80400552
2	7467539	456	587963.72542552
2	7476685	457	587963.64755116
2	7484443	458	587963.56983039
2	7491867	459	587963.49223198
2	7495828	460	587963.41524484
2	7503999	461	587963.33746013
2	7513109	462	587963.25958375
2	7525712	463	587963.18119014
2	7535239	464	587963.1032875
2	7542153	465	587963.02578557
2	7548264	466	587962.94834214
2	7558415	467	587962.87029008
2	7566053	468	587962.79267411
2	7575004	469	587962.71478333
2	7583147	470	587962.63701537
2	7591580	471	587962.55925995
2	7598917	472	587962.48164634
2	7605986	473	587962.40416592
2	7619193	474	587962.32570757
2	7628593	475	587962.24772537
2	7636348	476	587962.17012166
2	7652289	477	587962.0911161
2	7663357	478	587962.01287103
2	7670186	479	587961.93540804
2	7679005	480	587961.85762361
2	7687234	481	587961.77992046
2	7699125	482	587961.70159308
2	7712492	483	587961.62287804
2	7724595	484	587961.54187023
2	7738047	485	587961.45725762
2	7750614	486	587961.37874225
2	7759194	487	587961.30090096
2	7766101	488	587961.22338005
2	7774680	489	587961.14563457
2	7781589	490	587961.06816099
2	7789630	491	587960.99058713
2	7805009	492	587960.91174653
2	7814899	493	587960.83376163
2	7819716	494	587960.75662135
2	7825975	495	587960.67926477
2	7835246	496	587960.60138404
2	7846022	497	587960.52319016
2	7852539	498	587960.44573864
2	7862667	499	587960.36766318
2	7873874	500	587960.28936056
2	7883985	501	587960.21122716
2	7890858	502	587960.13372283
2	7900896	503	587960.05562795
2	7908814	504	587959.97800203
2	7917704	505	587959.90028936
2	7923464	506	587959.8229645
2	7934950	507	587959.74459601
2	7944524	508	587959.66666068
2	7948630	509	587959.58967985
2	7956677	510	587959.51198647
2	7963867	511	587959.43444909
2	7969133	512	587959.35716089
2	7976579	513	587959.27948791
2	7984585	514	587959.20184782
2	7991958	515	587959.12419288
2	8000850	516	587959.04627864
2	8010557	517	587958.96834092
2	8017395	518	587958.89082815
2	8027516	519	587958.81286757
2	8034123	520	587958.73548014
2	8046895	521	587958.6569609
2	8051140	522	587958.58002185
2	8058552	523	587958.50255575
2	8066329	524	587958.4248846
2	8073680	525	587958.34739754
2	8080073	526	587958.26997645
2	8086247	527	587958.19269
2	8096275	528	587958.11254369
2	8107163	529	587958.03061301
2	8115934	530	587957.95221443
2	8125288	531	587957.86886022
2	8137416	532	587957.79048015
2	8143763	533	587957.71317997
2	8146034	534	587957.63649404
2	8153467	535	587957.55894836
2	8160562	536	587957.48144624
2	8170633	537	587957.40341345
2	8180532	538	587957.32536712
2	8188584	539	587957.2477011
2	8197090	540	587957.1698802
2	8205949	541	587957.0921449
2	8212265	542	587957.01482559
2	8220249	543	587956.93730695
2	8225417	544	587956.8601586
2	8235859	545	587956.78211665
2	8244864	546	587956.70421659
2	8255615	547	587956.62604024
2	8261654	548	587956.54876182
2	8267697	549	587956.47145107
2	8275064	550	587956.39383265
2	8280733	551	587956.31651253
2	8288036	552	587956.23900616
2	8294334	553	587956.16163889
2	8306209	554	587956.08337256
2	8311228	555	587956.0062444
2	8314937	556	587955.92934008
2	8325966	557	587955.85106018
2	8336162	558	587955.77298406
2	8341299	559	587955.69583286
2	8345903	560	587955.61879103
2	8350405	561	587955.54155705
2	8360925	562	587955.46346637
2	8367961	563	587955.38606442
2	8371859	564	587955.30912848
2	8381202	565	587955.23122317
2	8385544	566	587955.15417552
2	8391197	567	587955.07694415
2	8404195	568	587954.99310882
2	8414124	569	587954.91438147
2	8420798	570	587954.83691008
2	8426523	571	587954.75964388
2	8434022	572	587954.68209929
2	8440144	573	587954.60481219
2	8445447	574	587954.52760074
2	8451921	575	587954.45017058
2	8456363	576	587954.37312984
2	8463106	577	587954.29572793
2	8472505	578	587954.21777482
2	8478348	579	587954.14050824
2	8482865	580	587954.06345758
2	8489746	581	587953.98601665
2	8496012	582	587953.90870274
2	8505794	583	587953.8308142
2	8510724	584	587953.75371233
2	8513740	585	587953.67695121
2	8519865	586	587953.59959583
2	8525894	587	587953.52228175
2	8534854	588	587953.44438262
2	8541768	589	587953.36692491
2	8549662	590	587953.28941225
2	8560322	591	587953.20542934
2	8567886	592	587953.12785559
2	8575946	593	587953.0501017
2	8582751	594	587952.97263764
2	8591716	595	587952.894755
2	8598821	596	587952.81723231
2	8606171	597	587952.7396105
2	8611160	598	587952.66242953
2	8621583	599	587952.58425332
2	8630883	600	587952.50632761
2	8636828	601	587952.42904896
2	8644381	602	587952.35139812
2	8653560	603	587952.2734491
2	8661100	604	587952.19587641
2	8668719	605	587952.11824893
2	8676883	606	587952.04046881
2	8687051	607	587951.96250913
2	8701258	608	587951.88386502
2	8708280	609	587951.80621417
2	8716823	610	587951.72841064
2	8723008	611	587951.65106858
2	8731636	612	587951.57334759
2	8738145	613	587951.49591834
2	8747445	614	587951.41802415
2	8754431	615	587951.34052143
2	8760256	616	587951.26322046
2	8764523	617	587951.18620196
2	8771637	618	587951.10863776
2	8779563	619	587951.03098778
2	8783862	620	587950.95401529
2	8793629	621	587950.87599648
2	8801966	622	587950.79822087
2	8809145	623	587950.72069174
2	8813802	624	587950.64357739
2	8824644	625	587950.56531506
2	8830941	626	587950.48787387
2	8839020	627	587950.41017093
2	8848228	628	587950.33226751
2	8852609	629	587950.25524383
2	8859157	630	587950.17787968
2	8866235	631	587950.10041698
2	8870848	632	587950.02334513
2	8878883	633	587949.94567942
2	8887550	634	587949.86780025
2	8895441	635	587949.79011783
2	8899016	636	587949.71325967
2	8908365	637	587949.6353167
2	8915078	638	587949.55793134
2	8921650	639	587949.48056579
2	8928261	640	587949.40310703
2	8935285	641	587949.32552672
2	8944197	642	587949.24772681
2	8950118	643	587949.17040388
2	8955435	644	587949.09317812
2	8960642	645	587949.01595236
2	8967108	646	587948.93855671
2	8972145	647	587948.86133917
2	8976160	648	587948.78430399
2	8982801	649	587948.70672961
2	8987837	650	587948.62951207
2	8994957	651	587948.55203768
2	8999354	652	587948.47497405
2	9003331	653	587948.39798737
2	9009498	654	587948.32060081
2	9013147	655	587948.24372304
2	9021580	656	587948.16586117
2	9031171	657	587948.0878561
2	9037272	658	587948.01051679
2	9039715	659	587947.93380069
2	9044392	660	587947.85673659
2	9054111	661	587947.7788459
2	9061877	662	587947.70108766
2	9065518	663	587947.62412327
2	9072974	664	587947.54646395
2	9075721	665	587947.46974785
2	9080925	666	587947.39252209
2	9089680	667	587947.31468145
2	9094918	668	587947.23757496
2	9103808	669	587947.15975492
2	9109762	670	587947.08248156
2	9123624	671	587946.99791246
2	9127212	672	587946.92099359
2	9132642	673	587946.84376783
2	9137840	674	587946.76662635
2	9148314	675	587946.68851702
2	9152603	676	587946.61150289
2	9160315	677	587946.53386254
2	9169368	678	587946.45603023
2	9181446	679	587946.37754635
2	9190857	680	587946.29961945
2	9199441	681	587946.22174414
2	9204093	682	587946.14466649
2	9209202	683	587946.06752277
2	9213369	684	587945.99045746
2	9220802	685	587945.91286374
2	9224970	686	587945.83590297
2	9230861	687	587945.75860237
2	9239282	688	587945.68086695
2	9247535	689	587945.60313975
2	9251494	690	587945.52624414
2	9258135	691	587945.44878382
2	9262870	692	587945.37172831
2	9269836	693	587945.29424768
2	9273542	694	587945.21731147
2	9279005	695	587945.14015148
2	9281248	696	587945.06344994
2	9288238	697	587944.98593759
2	9299032	698	587944.90771446
2	9303018	699	587944.83077003
2	9309276	700	587944.75342062
2	9316780	701	587944.67582893
2	9320386	702	587944.5989652
2	9324302	703	587944.52198043
2	9330055	704	587944.44473949
2	9338921	705	587944.36694581
2	9344023	706	587944.28977606
2	9349283	707	587944.21255852
2	9355328	708	587944.13525866
2	9363335	709	587944.05761397
2	9369650	710	587943.9802399
2	9374141	711	587943.90313779
2	9380059	712	587943.82579667
2	9386015	713	587943.74850273
2	9395500	714	587943.67047922
2	9406767	715	587943.5923932
2	9412846	716	587943.51501583
2	9423260	717	587943.43702591
2	9428349	718	587943.35980015
2	9434799	719	587943.28246739
2	9439832	720	587943.2053262
2	9447023	721	587943.12784888
2	9451846	722	587943.05080774
2	9457130	723	587942.97367598
2	9461686	724	587942.896627
2	9465162	725	587942.81974101
2	9473178	726	587942.74191279
2	9477140	727	587942.66492639
2	9482665	728	587942.58769833
2	9489400	729	587942.51033552
2	9494701	730	587942.43307914
2	9504019	731	587942.3551154
2	9507839	732	587942.27810298
2	9514248	733	587942.20065142
2	9520491	734	587942.12334768
2	9526558	735	587942.04604893
2	9532317	736	587941.9687211
2	9534848	737	587941.89201377
2	9543725	738	587941.81428843
2	9550578	739	587941.73675374
2	9554302	740	587941.65984513
2	9561818	741	587941.58225462
2	9571208	742	587941.50306703
2	9577308	743	587941.42275655
2	9580558	744	587941.34594706
2	9583789	745	587941.26906313
2	9597282	746	587941.18597878
2	9603719	747	587941.10869572
2	9612752	748	587941.03073117
2	9620969	749	587940.95302674
2	9627749	750	587940.87560019
2	9634004	751	587940.79830929
2	9641416	752	587940.72066584
2	9647930	753	587940.64323123
2	9651902	754	587940.56628826
2	9657235	755	587940.48913488
2	9675195	756	587940.40351964
2	9680169	757	587940.32641579
2	9691264	758	587940.24609383
2	9702749	759	587940.16399056
2	9712473	760	587940.0860484
2	9724267	761	587940.00394019
2	9739889	762	587939.9134004
2	9755076	763	587939.83442013
2	9759345	764	587939.75737042
2	9764790	765	587939.68000872
2	9775116	766	587939.60180808
2	9784968	767	587939.5237472
2	9795728	768	587939.44550587
2	9804975	769	587939.3676476
2	9814058	770	587939.28961786
2	9820940	771	587939.21206085
2	9840317	772	587939.13220887
2	9847555	773	587939.05472198
2	9857495	774	587938.9767069
2	9869227	775	587938.8983292
2	9881404	776	587938.81985206
2	9891219	777	587938.74187866
2	9903031	778	587938.66352891
2	9910640	779	587938.58596698
2	9921505	780	587938.50772831
2	9932106	781	587938.42968709
2	9939631	782	587938.3520808
2	9947731	783	587938.27433274
2	9960034	784	587938.19589769
2	9966436	785	587938.11859712
2	9972622	786	587938.04120969
2	9981270	787	587937.96347428
2	9989636	788	587937.88568066
2	10000977	789	587937.80733491
2	10010292	790	587937.72938983
2	10017857	791	587937.65177194
2	10027564	792	587937.57373933
2	10033688	793	587937.49634368
2	10038713	794	587937.41910855
2	10043239	795	587937.34207027
2	10055193	796	587937.26353951
2	10058718	797	587937.18660766
2	10067580	798	587937.1087715
2	10073145	799	587937.03154593
2	10078698	800	587936.95425083
2	10083847	801	587936.87703313
2	10091056	802	587936.79946776
2	10097085	803	587936.72216783
2	10107293	804	587936.64401111
2	10116871	805	587936.56593853
2	10125101	806	587936.48818992
2	10130507	807	587936.41094949
2	10136067	808	587936.33368489
2	10145101	809	587936.25579497
2	10151794	810	587936.17839217
2	10157088	811	587936.10118048
2	10168776	812	587936.02297334
2	10176734	813	587935.9453782
2	10186847	814	587935.86266816
2	10193065	815	587935.78409321
2	10201103	816	587935.70638079
2	10207729	817	587935.62897812
2	10217917	818	587935.5510145
2	10223616	819	587935.4737167
2	10230514	820	587935.39627557
2	10237257	821	587935.31883916
2	10245552	822	587935.2410485
2	10252067	823	587935.16358115
2	10257708	824	587935.08638136
2	10264723	825	587935.00883328
2	10271306	826	587934.93140582
2	10279506	827	587934.85371866
2	10285305	828	587934.77636644
2	10291521	829	587934.69895846
2	10296003	830	587934.6219067
2	10303414	831	587934.54426173
2	10312117	832	587934.46647228
2	10321333	833	587934.38860799
2	10328057	834	587934.31111419
2	10339458	835	587934.23281455
2	10345376	836	587934.15547801
2	10350416	837	587934.07834719
2	10356633	838	587934.00095974
2	10366143	839	587933.92301093
2	10377003	840	587933.84477035
2	10384027	841	587933.7672343
2	10387279	842	587933.69038331
2	10393520	843	587933.61298766
2	10405727	844	587933.53455927
2	10412647	845	587933.4570843
2	10421653	846	587933.379179
2	10427417	847	587933.30195836
2	10436606	848	587933.22421072
2	10449381	849	587933.1398532
2	10455611	850	587933.06233189
2	10461273	851	587932.98510613
2	10469166	852	587932.90751379
2	10478725	853	587932.8296038
2	10483678	854	587932.75248171
2	10491538	855	587932.67485847
2	10499414	856	587932.59730732
2	10503461	857	587932.52034296
2	10513754	858	587932.44229902
2	10523968	859	587932.36437171
2	10536774	860	587932.28580749
2	10541599	861	587932.20866774
2	10548349	862	587932.1311926
2	10555402	863	587932.05368724
2	10564040	864	587931.97589039
2	10569088	865	587931.89878481
2	10583091	866	587931.82002187
2	10591402	867	587931.74233334
2	10598963	868	587931.66466918
2	10605650	869	587931.58723556
2	10615077	870	587931.50931137
2	10622797	871	587931.43175774
2	10627363	872	587931.35469365
2	10633600	873	587931.27733257
2	10644702	874	587931.19639958
2	10653225	875	587931.11549893
2	10659827	876	587931.03804249
2	10665992	877	587930.96070546
2	10675490	878	587930.8828554
2	10679949	879	587930.80585117
2	10686746	880	587930.7283394
2	10695821	881	587930.65052965
2	10702539	882	587930.5730929
2	10708860	883	587930.49574521
2	10715049	884	587930.41840244
2	10721395	885	587930.34102946
2	10728027	886	587930.26360916
2	10732195	887	587930.18655328
2	10742691	888	587930.10839279
2	10751717	889	587930.03058848
2	10760295	890	587929.95279195
2	10768708	891	587929.87499771
2	10775719	892	587929.79745442
2	10782679	893	587929.72000865
2	10787266	894	587929.64298642
2	10793012	895	587929.56566914
2	10801014	896	587929.48798541
2	10806212	897	587929.41085162
2	10813235	898	587929.33343259
2	10824831	899	587929.25511612
2	10834041	900	587929.17718896
2	10840181	901	587929.09982809
2	10847669	902	587929.02220599
2	10856305	903	587928.9445085
2	10860288	904	587928.86747101
2	10865576	905	587928.79032935
2	10877398	906	587928.70868325
2	10886884	907	587928.62812271
2	10894656	908	587928.55046969
2	10899061	909	587928.4734515
2	10905565	910	587928.39604766
2	10912511	911	587928.3185327
2	10918812	912	587928.24120362
2	10927299	913	587928.16353781
2	10933683	914	587928.08613266
2	10938111	915	587928.0090465
2	10947239	916	587927.93116362
2	10953922	917	587927.85372793
2	10961480	918	587927.77626304
2	10972009	919	587927.6922149
2	10978999	920	587927.61473822
2	10983720	921	587927.53774133
2	10997323	922	587927.45904175
2	11011594	923	587927.37536821
2	11020623	924	587927.29745306
2	11032216	925	587927.21904817
2	11044417	926	587927.1406824
2	11050861	927	587927.06326435
2	11064914	928	587926.98453372
2	11079385	929	587926.90575449
2	11091469	930	587926.82741495
2	11100155	931	587926.74955346
2	11108779	932	587926.67177423
2	11116618	933	587926.59413681
2	11122901	934	587926.51669974
2	11133803	935	587926.43845026
2	11144166	936	587926.36031397
2	11154344	937	587926.28225204
2	11162422	938	587926.20450336
2	11172183	939	587926.12656477
2	11181101	940	587926.04873803
2	11191239	941	587925.97060476
2	11198850	942	587925.89295405
2	11205900	943	587925.81541173
2	11211913	944	587925.73807346
2	11224028	945	587925.6596809
2	11231979	946	587925.58194589
2	11241002	947	587925.50405472
2	11249628	948	587925.42628249
2	11255215	949	587925.34903303
2	11261494	950	587925.27160544
2	11268293	951	587925.19407137
2	11273073	952	587925.11690612
2	11279986	953	587925.03927573
2	11285781	954	587924.96200201
2	11290666	955	587924.88482918
2	11298588	956	587924.80722705
2	11304520	957	587924.72994898
2	11313833	958	587924.64616861
2	11327567	959	587924.56399019
2	11337131	960	587924.48508338
2	11341891	961	587924.4079823
2	11350191	962	587924.33026275
2	11355031	963	587924.25325382
2	11362971	964	587924.17553355
2	11369442	965	587924.09807195
2	11375722	966	587924.02070916
2	11386335	967	587923.93680507
2	11393799	968	587923.85913157
2	11401918	969	587923.78153233
2	11408464	970	587923.70411407
2	11416163	971	587923.62651487
2	11426357	972	587923.54852145
2	11434331	973	587923.47083609
2	11441777	974	587923.39326961
2	11447824	975	587923.31599049
2	11459368	976	587923.23755466
2	11466255	977	587923.16006287
2	11476469	978	587923.08208511
2	11479998	979	587923.0051909
2	11487365	980	587922.92771925
2	11495190	981	587922.85012857
2	11504973	982	587922.77209719
2	11513742	983	587922.69423712
2	11522952	984	587922.61640424
2	11528430	985	587922.53924739