version 2
run General-0-20140518-15:09:20-21856
attr configname General
attr datetime 20140518-15:09:20
attr experiment General
attr inifile omnetpp.ini
attr iterationvars ""
attr iterationvars2 $repetition=0
attr measurement ""
attr network WSN
attr processid 21856
attr repetition 0
attr replication #0
attr resultdir results
attr runnumber 0
attr seedset 0

vector 2  WSN.statistic  networkEnergy:vector  ETV
attr title  "Node energy, vector"
vector 3  WSN.statistic  sensorEnergy:vector  ETV
attr title  "Sensor energy, vector"
2	198	0	588000
2	1578	1	587999.923462
2	3155	2	587999.846924
2	4820	3	587999.770386
2	6941	4	587999.693848
2	8530	5	587999.61731
2	10107	6	587999.540772
2	12642	7	587999.46409448
2	15106	8	587999.38741695
2	17226	9	587999.31076113
2	20224	10	587999.23392236
2	25414	11	587999.15682626
2	27640	12	587999.08014873
2	32591	13	587999.00296466
2	38740	14	587998.92569584
2	46046	15	587998.84810623
2	52009	16	587998.77078349
2	61638	17	587998.69285022
2	72549	18	587998.61474535
2	82602	19	587998.53666522
2	94532	20	587998.45831879
2	111151	21	587998.37919635
2	120810	22	587998.30129455
2	133102	23	587998.22274973
2	154946	24	587998.14273244
2	172878	25	587998.06341265
2	186895	26	587997.98473427
2	210032	27	587997.90431469
2	238465	28	587997.82307885
2	252194	29	587997.74442114
2	279304	30	587997.66339786
2	300773	31	587997.58330356
2	328348	32	587997.50221089
2	350738	33	587997.42209339
2	381312	34	587997.34042706
2	408399	35	587997.25934154
2	433523	36	587997.17864789
2	469827	37	587997.09596244
2	495435	38	587997.01527394
2	523727	39	587996.93408741
2	558479	40	587996.85164357
2	591021	41	587996.76978582
2	621086	42	587996.68824382
2	650479	43	587996.60686727
2	689503	44	587996.52373544
2	721132	45	587996.44192752
2	758669	46	587996.35925537
2	790848	47	587996.27748843
2	826934	48	587996.1948638
2	857317	49	587996.11338359
2	896288	50	587996.03043182
2	926879	51	587995.94889147
2	959252	52	587995.86714438
2	999844	53	587995.78374465
2	1028287	54	587995.7024602
2	1053034	55	587995.62192494
2	1086553	56	587995.53982167
2	1118633	57	587995.45791532
2	1139748	58	587995.37812268
2	1170883	59	587995.29657273
2	1203635	60	587995.21454393
2	1231295	61	587995.13342062
2	1254483	62	587995.05311419
2	1282524	63	587994.97189466
2	1306647	64	587994.89152964
2	1331006	65	587994.81104238
2	1362624	66	587994.72917242
2	1384556	67	587994.64912772
2	1408145	68	587994.56864278
2	1433058	69	587994.48797801
2	1446616	70	587994.40948535
2	1471734	71	587994.32887817
2	1502644	72	587994.24739517
2	1519231	73	587994.16828556
2	1543608	74	587994.08776345
2	1564970	75	587994.00765168
2	1593305	76	587993.92648055
2	1610814	77	587993.8472465
2	1633494	78	587993.76713098
2	1657169	79	587993.68666921
2	1673310	80	587993.60757533
2	1701816	81	587993.52640008
2	1717694	82	587993.44727812
2	1744254	83	587993.36642401
2	1762729	84	587993.28692238
2	1784891	85	587993.20700282
2	1808676	86	587993.12648003
2	1835125	87	587993.04065193
2	1855418	88	587992.96082316
2	1883700	89	587992.87977124
2	1904301	90	587992.79999932
2	1923576	91	587992.72032174
2	1946538	92	587992.64016377
2	1966011	93	587992.56057601
2	1989116	94	587992.48030384
2	2017112	95	587992.39932712
2	2039139	96	587992.31930391
2	2058019	97	587992.23978346
2	2087004	98	587992.15854975
2	2108078	99	587992.0786077
2	2127570	100	587991.99894315
2	2155408	101	587991.91793355
2	2174722	102	587991.83833442
2	2197023	103	587991.75829073
2	2216296	104	587991.67873709
2	2244852	105	587991.59756646
2	2261635	106	587991.5183385
2	2287115	107	587991.43781
2	2304056	108	587991.35864064
2	2325272	109	587991.27880579
2	2345131	110	587991.19913774
2	2362233	111	587991.11985312
2	2379002	112	587991.04056738
2	2404286	113	587990.95625081
2	2423394	114	587990.87668247
2	2441596	115	587990.79729096
2	2462361	116	587990.71738207
2	2478378	117	587990.63848321
2	2496712	118	587990.55903353
2	2518266	119	587990.47912774
2	2534864	120	587990.39999811
2	2550672	121	587990.32104356
2	2567848	122	587990.24177815
2	2586897	123	587990.16236233
2	2598899	124	587990.0840269
2	2616498	125	587990.00486505
2	2630378	126	587989.92616532
2	2646416	127	587989.84705713
2	2664716	128	587989.76766882
2	2675970	129	587989.68956715
2	2691426	130	587989.61061152
2	2709605	131	587989.53123815
2	2724815	132	587989.45235525
2	2738650	133	587989.37375129
2	2754183	134	587989.29477829
2	2769441	135	587989.21593258
2	2785264	136	587989.13696764
2	2795811	137	587989.05896424
2	2806742	138	587988.9808956
2	2815924	139	587988.90316137
2	2829777	140	587988.82454898
2	2842658	141	587988.74603694
2	2857908	142	587988.66546253
2	2872011	143	587988.58468732
2	2888936	144	587988.50237089
2	2908377	145	587988.42087192
2	2924069	146	587988.34186171
2	2933561	147	587988.26401331
2	2952841	148	587988.18437337
2	2966863	149	587988.10569092
2	2982866	150	587988.02675077
2	2998151	151	587987.94790772
2	3012800	152	587987.869107
2	3023109	153	587987.79110215
2	3037400	154	587987.71232984
2	3053073	155	587987.63329598
2	3069678	156	587987.55415329
2	3088950	157	587987.47464411
2	3105950	158	587987.395503
2	3121268	159	587987.3166784
2	3130308	160	587987.2387961
2	3144577	161	587987.16004708
2	3160993	162	587987.08103316
2	3177002	163	587987.00180378
2	3188053	164	587986.92363666
2	3203359	165	587986.84478722
2	3219638	166	587986.76571627
2	3230772	167	587986.68747398
2	3247427	168	587986.60829512
2	3266947	169	587986.52868383
2	3281069	170	587986.45011362
2	3295357	171	587986.37143096
2	3309190	172	587986.29289426
2	3321152	173	587986.21455441
2	3335938	174	587986.13582656
2	3347663	175	587986.05750191
2	3360862	176	587985.97897092
2	3375380	177	587985.90012974
2	3390587	178	587985.82125089
2	3404118	179	587985.74263162
2	3419721	180	587985.66361605
2	3437742	181	587985.58420419
2	3450502	182	587985.50582809
2	3459464	183	587985.4280277
2	3470056	184	587985.35000224
2	3483890	185	587985.27133077
2	3495380	186	587985.19312434
2	3509864	187	587985.11438832
2	3528944	188	587985.03275036
2	3542013	189	587984.95435503
2	3551204	190	587984.87639388
2	3569338	191	587984.79709616
2	3585577	192	587984.71811122
2	3607134	193	587984.62870595
2	3620099	194	587984.54927321
2	3630090	195	587984.47132624
2	3648385	196	587984.39195999
2	3669373	197	587984.31218334
2	3684694	198	587984.23340848
2	3696355	199	587984.15505088
2	3706897	200	587984.07700795
2	3723029	201	587983.99807642
2	3740526	202	587983.91872804
2	3755651	203	587983.83999285
2	3767305	204	587983.7617168
2	3790442	205	587983.68014662
2	3803244	206	587983.60163749
2	3814794	207	587983.52335765
2	3832032	208	587983.44420664
2	3846802	209	587983.36532437
2	3863045	210	587983.28616822
2	3879013	211	587983.20726582
2	3889047	212	587983.12926763
2	3902054	213	587983.05070431
2	3923211	214	587982.97080017
2	3934686	215	587982.89261149
2	3945917	216	587982.81436295
2	3961118	217	587982.73547148
2	3980963	218	587982.65574793
2	4000494	219	587982.57619455
2	4016670	220	587982.49714309
2	4025626	221	587982.41920052
2	4036828	222	587982.34101281
2	4048185	223	587982.26282719
2	4061120	224	587982.18429138
2	4074160	225	587982.10568851
2	4086768	226	587982.02721208
2	4100998	227	587981.94863928
2	4113710	228	587981.87012481
2	4130776	229	587981.79090237
2	4145533	230	587981.71204269
2	4157689	231	587981.63366885
2	4171477	232	587981.55511087
2	4189273	233	587981.47120153
2	4209221	234	587981.38965453
2	4216171	235	587981.31220102
2	4228233	236	587981.23389622
2	4247521	237	587981.14721754
2	4261506	238	587981.06688487
2	4275480	239	587980.98533889
2	4291637	240	587980.9062827
2	4306379	241	587980.82748009
2	4315728	242	587980.74955513
2	4332254	243	587980.67056362
2	4343608	244	587980.59239058
2	4355518	245	587980.51400348
2	4371418	246	587980.43505244
2	4386641	247	587980.35635539
2	4405023	248	587980.27700334
2	4416135	249	587980.19876716
2	4429286	250	587980.11795553
2	4444102	251	587980.03919989
2	4459264	252	587979.96043966
2	4474932	253	587979.8814224
2	4488283	254	587979.80299511
2	4499492	255	587979.72478781
2	4512255	256	587979.6463846
2	4521933	257	587979.56849043
2	4538914	258	587979.48930814
2	4552769	259	587979.41069018
2	4570125	260	587979.33162659
2	4585855	261	587979.25272034
2	4597764	262	587979.17440627
2	4613354	263	587979.09547035
2	4628422	264	587979.01665681
2	4640512	265	587978.9383367
2	4651172	266	587978.86030863
2	4663145	267	587978.78196453
2	4672598	268	587978.70406647
2	4688125	269	587978.62524984
2	4696305	270	587978.54761196
2	4702347	271	587978.47033682
2	4714788	272	587978.39195071
2	4728210	273	587978.31342904
2	4737560	274	587978.23568687
2	4750170	275	587978.15722305
2	4759576	276	587978.07949054
2	4771001	277	587978.00135431
2	4780018	278	587977.92360663
2	4791198	279	587977.84549335
2	4803268	280	587977.76714
2	4814435	281	587977.68895835
2	4825226	282	587977.61090485
2	4831831	283	587977.53350914
2	4840011	284	587977.45583447
2	4849627	285	587977.37789094
2	4863206	286	587977.29923061
2	4869199	287	587977.2219609
2	4877675	288	587977.14437976
2	4887749	289	587977.06638836
2	4894805	290	587976.98897193
2	4908352	291	587976.9104893
2	4916263	292	587976.83289856
2	4926861	293	587976.75481057
2	4935514	294	587976.67712141
2	4942530	295	587976.59969197
2	4956312	296	587976.52113156
2	4965472	297	587976.44327989
2	4976841	298	587976.36514179
2	4984920	299	587976.28754029
2	4995695	300	587976.20945316
2	5000987	301	587976.13220858
2	5011526	302	587976.05416315
2	5019762	303	587975.97655361
2	5030088	304	587975.89844077
2	5040828	305	587975.82028963
2	5048944	306	587975.74279337
2	5054834	307	587975.66552127
2	5062757	308	587975.58801484
2	5073408	309	587975.50993507
2	5077393	310	587975.43304257
2	5088538	311	587975.35490003
2	5100995	312	587975.27658384
2	5111299	313	587975.19849721
2	5123387	314	587975.1201472
2	5135156	315	587975.041972
2	5143810	316	587974.96427611
2	5152662	317	587974.88397637
2	5164619	318	587974.80569689
2	5172182	319	587974.72823728
2	5184275	320	587974.6500323
2	5189790	321	587974.5728437
2	5198577	322	587974.49517551
2	5205817	323	587974.41784619
2	5214619	324	587974.34000191
2	5225581	325	587974.26189633
2	5234389	326	587974.18411423
2	5245013	327	587974.1060065
2	5252622	328	587974.0285127
2	5259456	329	587973.95104772
2	5272534	330	587973.87265996
2	5282018	331	587973.79489231
2	5288312	332	587973.71754978
2	5296719	333	587973.63973873
2	5304157	334	587973.56228693
2	5311785	335	587973.48480599
2	5316972	336	587973.40769229
2	5326448	337	587973.32991942
2	5338780	338	587973.25166258
2	5348954	339	587973.1736811
2	5359779	340	587973.09552518
2	5369709	341	587973.01753714
2	5379876	342	587972.93953638
2	5387136	343	587972.86204108
2	5396380	344	587972.78432224
2	5404074	345	587972.70671384
2	5409681	346	587972.62952687
2	5415653	347	587972.55229552
2	5426121	348	587972.47424148
2	5431802	349	587972.39691705
2	5441587	350	587972.31896758
2	5447491	351	587972.24173795
2	5455301	352	587972.16415078
2	5465774	353	587972.08611226
2	5474962	354	587972.00842793
2	5485090	355	587971.93039724
2	5488039	356	587971.85360971
2	5495032	357	587971.77605393
2	5501459	358	587971.69858693
2	5509432	359	587971.62092563
2	5516484	360	587971.5435009
2	5522819	361	587971.46618103
2	5528486	362	587971.3889671
2	5539797	363	587971.31067855
2	5547159	364	587971.23321016
2	5555051	365	587971.15559015
2	5561117	366	587971.07824295
2	5568519	367	587971.00076452
2	5571901	368	587970.92390418
2	5581627	369	587970.84600597
2	5589515	370	587970.76846385
2	5598960	371	587970.69046965
2	5610036	372	587970.61227098
2	5616956	373	587970.53478712
2	5621448	374	587970.45779972
2	5629935	375	587970.38021405
2	5638726	376	587970.30243169
2	5645275	377	587970.22508773
2	5657723	378	587970.14668563
2	5664431	379	587970.06923558
2	5668979	380	587969.99216531
2	5676344	381	587969.91469205
2	5687571	382	587969.83650813
2	5695698	383	587969.7588586
2	5702758	384	587969.6814264
2	5713262	385	587969.60342496
2	5721349	386	587969.52580821
2	5733239	387	587969.44755816
2	5739853	388	587969.37018941
2	5746641	389	587969.29278941
2	5751422	390	587969.21578115
2	5760575	391	587969.13794413
2	5767426	392	587969.06051681
2	5774699	393	587968.9830333
2	5782372	394	587968.90542728
2	5790089	395	587968.82790222
2	5798244	396	587968.75021713
2	5805550	397	587968.67271473
2	5813363	398	587968.59515583
2	5818771	399	587968.51791427
2	5825915	400	587968.44045638
2	5834210	401	587968.36286879
2	5842912	402	587968.28510698
2	5853297	403	587968.20714313
2	5863254	404	587968.12915335
2	5873351	405	587968.05117515
2	5882641	406	587967.97346456
2	5892048	407	587967.89564005
2	5903308	408	587967.81739642
2	5911444	409	587967.73972209
2	5917966	410	587967.66240244
2	5925968	411	587967.58480568
2	5933423	412	587967.50731051
2	5938221	413	587967.43025502
2	5948294	414	587967.35232716
2	5953395	415	587967.2752301
2	5963141	416	587967.19726713
2	5972689	417	587967.11940447
2	5978396	418	587967.04216712
2	5987396	419	587966.96445023
2	5991342	420	587966.88744845
2	6001651	421	587966.80945622
2	6008536	422	587966.73200782
2	6014479	423	587966.65473395
2	6025040	424	587966.5767017
2	6033687	425	587966.49901685
2	6044219	426	587966.4210425
2	6050534	427	587966.3436411
2	6058146	428	587966.26614419
2	6063115	429	587966.18902394
2	6072997	430	587966.11114114
2	6079205	431	587966.03385518
2	6085985	432	587965.95642013
2	6093339	433	587965.87891681
2	6102938	434	587965.80112646
2	6110981	435	587965.72349741
2	6119456	436	587965.64583002
2	6126606	437	587965.56840422
2	6134965	438	587965.49080717
2	6145940	439	587965.41270032
2	6158921	440	587965.33417617
2	6166113	441	587965.25670962
2	6173292	442	587965.17925284
2	6179341	443	587965.10197177
2	6184553	444	587965.02478805
2	6191464	445	587964.94734885
2	6201822	446	587964.8644051
2	6208312	447	587964.78699115
2	6217036	448	587964.70926117
2	6225753	449	587964.63153496
2	6231671	450	587964.55433272
2	6239086	451	587964.47681705
2	6245555	452	587964.39941821
2	6253817	453	587964.32175809
2	6266484	454	587964.24337983
2	6273190	455	587964.16598943
2	6279786	456	587964.08862579
2	6287292	457	587964.0111114
2	6292615	458	587963.93396056
2	6300462	459	587963.85640895
2	6308097	460	587963.77873829
2	6311106	461	587963.70192993
2	6317723	462	587963.62457835
2	6328121	463	587963.54660177
2	6336805	464	587963.4689488
2	6343367	465	587963.39163173
2	6348117	466	587963.31460181
2	6356098	467	587963.23686596
2	6360868	468	587963.15971641
2	6366294	469	587963.08254805
2	6377595	470	587963.00430378
2	6383344	471	587962.92707863
2	6390074	472	587962.84967705
2	6399855	473	587962.77177116
2	6406030	474	587962.69448772
2	6411624	475	587962.6173082
2	6417589	476	587962.5400681
2	6426056	477	587962.4622642
2	6432794	478	587962.38488759
2	6443755	479	587962.30677053
2	6451722	480	587962.2290988
2	6461053	481	587962.15122147
2	6466942	482	587962.07398016
2	6473327	483	587961.9958751
2	6482801	484	587961.91390662
2	6487781	485	587961.83689838
2	6493695	486	587961.75968586
2	6497957	487	587961.68269113
2	6501919	488	587961.60580261
2	6510524	489	587961.5281331
2	6516011	490	587961.45089111
2	6524792	491	587961.37317704
2	6528945	492	587961.29624638
2	6534057	493	587961.21901075
2	6539283	494	587961.14187029
2	6545521	495	587961.06455842
2	6549892	496	587960.98759455
2	6555142	497	587960.91043061
2	6561073	498	587960.83306446
2	6564511	499	587960.75623919
2	6572332	500	587960.67858497
2	6578237	501	587960.60120863
2	6587889	502	587960.5232601
2	6592882	503	587960.44611454
2	6601024	504	587960.36856899
2	6606626	505	587960.29126705
2	6612630	506	587960.21396575
2	6618499	507	587960.13661391
2	6624460	508	587960.05925761
2	6629575	509	587959.98211809
2	6634322	510	587959.9050561
2	6639991	511	587959.82784128
2	6643683	512	587959.75093642
2	6648224	513	587959.67397162
2	6653038	514	587959.59685907
2	6656768	515	587959.51990669
2	6661145	516	587959.44290481
2	6667064	517	587959.36559199
2	6672453	518	587959.28843354
2	6676857	519	587959.21137685
2	6680755	520	587959.1344875
2	6685606	521	587959.05742492
2	6690336	522	587958.98037004
2	6697832	523	587958.90290758
2	6705069	524	587958.82547124
2	6712397	525	587958.74805684
2	6719087	526	587958.67073586
2	6725161	527	587958.5934768
2	6729188	528	587958.51656176
2	6736005	529	587958.43924393
2	6743472	530	587958.36160914
2	6747636	531	587958.28458852
2	6755150	532	587958.20697042
2	6760016	533	587958.12982998
2	6764598	534	587958.05287165
2	6768909	535	587957.97589149
2	6771914	536	587957.89905799
2	6778785	537	587957.8215207
2	6783405	538	587957.7444908
2	6789137	539	587957.6672729
2	6795061	540	587957.59006624
2	6798657	541	587957.51323275
2	6803471	542	587957.43616562
2	6809445	543	587957.35899207
2	6815975	544	587957.28163867
2	6824776	545	587957.20395146
2	6827772	546	587957.12716749
2	6833299	547	587957.04993198
2	6838656	548	587956.97281121
2	6842410	549	587956.89584641
2	6848826	550	587956.81855384
2	6855126	551	587956.74119575
2	6860643	552	587956.66398816
2	6864507	553	587956.58709983
2	6870576	554	587956.50987687
2	6876168	555	587956.43264549
2	6880785	556	587956.35562279
2	6888151	557	587956.27811435
2	6892034	558	587956.20117947
2	6895215	559	587956.12436354
2	6900070	560	587956.04721192
2	6903070	561	587955.97042572
2	6908060	562	587955.89340161
2	6914381	563	587955.81605177
2	6921037	564	587955.73861951
2	6926332	565	587955.66147795
2	6931610	566	587955.58428604
2	6937955	567	587955.50693988
2	6943770	568	587955.4297831
2	6949316	569	587955.35256622
2	6955524	570	587955.27526966
2	6958588	571	587955.19851547
2	6964018	572	587955.12131012
2	6966178	573	587955.04469468
2	6970986	574	587954.96766024
2	6978826	575	587954.89010964
2	6985098	576	587954.81281116
2	6989547	577	587954.73584652
2	6994895	578	587954.65861088
2	7000908	579	587954.58132976
2	7005689	580	587954.50422557
2	7011236	581	587954.42716134
2	7013388	582	587954.35053776
2	7019789	583	587954.27319407
2	7022822	584	587954.19646397
2	7030656	585	587954.11898088
2	7036521	586	587954.04175672
2	7041695	587	587953.96459868
2	7047306	588	587953.88737461
2	7053164	589	587953.81013785
2	7056850	590	587953.73329302
2	7059110	591	587953.65666318
2	7064210	592	587953.57959516
2	7069698	593	587953.50232956
2	7074854	594	587953.42514972
2	7082941	595	587953.34755047
2	7087698	596	587953.27044828
2	7090187	597	587953.19373976
2	7097101	598	587953.11622516
2	7104176	599	587953.0387955
2	7109710	600	587952.96160642
2	7115965	601	587952.88443907
2	7122954	602	587952.80706227
2	7128401	603	587952.72993128
2	7133758	604	587952.65279276
2	7139167	605	587952.57490335
2	7147134	606	587952.49428164
2	7152550	607	587952.41709226
2	7156353	608	587952.34021009
2	7164554	609	587952.26250526
2	7171571	610	587952.18500611
2	7175413	611	587952.10811906
2	7185773	612	587952.03012677
2	7192978	613	587951.95273631
2	7198388	614	587951.87547675
2	7206068	615	587951.79787724
2	7212321	616	587951.72060276
2	7216298	617	587951.6436762
2	7223404	618	587951.56617678
2	7227816	619	587951.4891231
2	7234884	620	587951.41172912
2	7240632	621	587951.33449471
2	7246891	622	587951.25719415
2	7258954	623	587951.1789453
2	7264145	624	587951.10175424
2	7275203	625	587951.0166174
2	7282582	626	587950.93868478
2	7286237	627	587950.86178528
2	7300542	628	587950.78032134
2	7310603	629	587950.70241164
2	7319533	630	587950.624707
2	7325547	631	587950.54745492
2	7334806	632	587950.46969487
2	7344044	633	587950.39188826
2	7352776	634	587950.31422925
2	7362332	635	587950.23637034
2	7371686	636	587950.15845305
2	7380270	637	587950.080835
2	7390936	638	587949.99786266
2	7399273	639	587949.92033851
2	7404934	640	587949.84313288
2	7411236	641	587949.7657452
2	7421302	642	587949.68778781
2	7426088	643	587949.61065948
2	7433157	644	587949.53326304
2	7443143	645	587949.45524374
2	7453548	646	587949.37720679
2	7461931	647	587949.29951362
2	7469722	648	587949.22197121
2	7475230	649	587949.14473557
2	7481087	650	587949.06749172
2	7488411	651	587948.98996059
2	7492712	652	587948.91298757
2	7497458	653	587948.83587913
2	7505130	654	587948.758325
2	7511887	655	587948.68090567
2	7519667	656	587948.60331041
2	7526700	657	587948.52590326
2	7534679	658	587948.44828357
2	7536636	659	587948.37168894
2	7541126	660	587948.29461257
2	7545486	661	587948.21755809
2	7552381	662	587948.14012174
2	7558645	663	587948.06277747
2	7564642	664	587947.98550272
2	7569128	665	587947.90851317
2	7580197	666	587947.83045581
2	7585222	667	587947.75336398
2	7588875	668	587947.67648506
2	7594290	669	587947.59926389
2	7602154	670	587947.52169965
2	7609664	671	587947.44413141
2	7616429	672	587947.36673998
2	7623010	673	587947.28941969
2	7628159	674	587947.21230836
2	7634367	675	587947.13506451
2	7641735	676	587947.0575675
2	7651189	677	587946.97968488
2	7654926	678	587946.902781
2	7661749	679	587946.82541452
2	7668143	680	587946.74809252
2	7674497	681	587946.67080633
2	7682857	682	587946.59311194
2	7688285	683	587946.51599528
2	7694483	684	587946.43858233
2	7700064	685	587946.36137712
2	7706267	686	587946.28413248
2	7712309	687	587946.20684665
2	7718645	688	587946.12957712
2	7725780	689	587946.05213674
2	7731104	690	587945.97496956
2	7734618	691	587945.89808401
2	7741783	692	587945.82068693
2	7751688	693	587945.74273926
2	7758986	694	587945.6653994
2	7766911	695	587945.58781671
2	7774274	696	587945.51042161
2	7778599	697	587945.43339371
2	7784142	698	587945.35618964
2	7789937	699	587945.27898567
2	7796528	700	587945.20160025
2	7801481	701	587945.1245104
2	7808661	702	587945.04714076
2	7817310	703	587944.96941265
2	7821823	704	587944.89237408
2	7832547	705	587944.81438465
2	7841827	706	587944.73655082
2	7847552	707	587944.65924114
2	7850414	708	587944.58245993
2	7858435	709	587944.50485515
2	7866984	710	587944.42731207
2	7872677	711	587944.35012304
2	7878024	712	587944.27289464
2	7883692	713	587944.19567568
2	7886463	714	587944.11895465
2	7895017	715	587944.04129587
2	7906056	716	587943.96318839
2	7910751	717	587943.88613159
2	7914744	718	587943.80921299
2	7919933	719	587943.73203378
2	7925537	720	587943.65482106
2	7932447	721	587943.5773798
2	7938856	722	587943.50006582
2	7943942	723	587943.42296872
2	7948934	724	587943.34589441
2	7952277	725	587943.26906913
2	7957180	726	587943.1906915
2	7962875	727	587943.11348483
2	7968163	728	587943.03629786
2	7973044	729	587942.9592504
2	7977297	730	587942.88224639
2	7983904	731	587942.8048637
2	7991400	732	587942.72613026
2	7997747	733	587942.64875974
2	8003389	734	587942.57153847
2	8011055	735	587942.4939996
2	8017401	736	587942.41672685
2	8027976	737	587942.33867831
2	8035990	738	587942.26114538
2	8041779	739	587942.1839192
2	8053891	740	587942.10573438
2	8058132	741	587942.02878815
2	8063384	742	587941.95161879
2	8074162	743	587941.87347895
2	8081849	744	587941.79596307
2	8088738	745	587941.71852181
2	8096644	746	587941.64102179
2	8105570	747	587941.56319775
2	8112319	748	587941.48581002
2	8119580	749	587941.40844896
2	8131080	750	587941.33031629
2	8135356	751	587941.25332978
2	8140547	752	587941.17614381
2	8148734	753	587941.09852484
2	8154105	754	587941.02136575
2	8165518	755	587940.94312868
2	8172136	756	587940.86583134
2	8180884	757	587940.78817709
2	8187781	758	587940.71078838
2	8193531	759	587940.63351666
2	8199543	760	587940.55626458
2	8205386	761	587940.4790404
2	8210251	762	587940.40199296
2	8217187	763	587940.32452167
2	8223867	764	587940.24719004
2	8232547	765	587940.16936623
2	8241081	766	587940.09172652
2	8248540	767	587940.0141908
2	8253452	768	587939.93713236
2	8258417	769	587939.86007465
2	8266181	770	587939.78249162
2	8269715	771	587939.70561784
2	8272357	772	587939.62890413
2	8276508	773	587939.55193933
2	8281351	774	587939.47477802
2	8287553	775	587939.39752397
2	8292407	776	587939.32049078
2	8301344	777	587939.24270903
2	8311153	778	587939.16478629
2	8315612	779	587939.08778254
2	8319368	780	587939.01087261
2	8325891	781	587938.93350828
2	8332649	782	587938.85607357
2	8337751	783	587938.77893308
2	8341993	784	587938.70201597
2	8349288	785	587938.6245534
2	8357201	786	587938.54696857
2	8366260	787	587938.46921601
2	8372939	788	587938.39178323
2	8378396	789	587938.31453937
2	8383392	790	587938.23744326
2	8394005	791	587938.15935173
2	8399654	792	587938.082089
2	8403260	793	587938.00524536
2	8406943	794	587937.92833424
2	8411949	795	587937.85122169
2	8420144	796	587937.77353883
2	8426281	797	587937.69623697
2	8435398	798	587937.61849495
2	8440400	799	587937.5414155
2	8444783	800	587937.46441143
2	8448668	801	587937.38744822
2	8456648	802	587937.30978214
2	8461544	803	587937.23263939
2	8465994	804	587937.15565308
2	8470406	805	587937.07865247
2	8474085	806	587937.00177543
2	8478186	807	587936.92482645
2	8482820	808	587936.84777385
2	8485512	809	587936.7710532
2	8491883	810	587936.69370501
2	8495457	811	587936.61687894
2	8501761	812	587936.53952183
2	8507061	813	587936.46236438
2	8511417	814	587936.38537167
2	8517120	815	587936.3080534
2	8524384	816	587936.23066887
2	8528845	817	587936.15368293
2	8536090	818	587936.0763105
2	8540492	819	587935.99933748
2	8547500	820	587935.92195015
2	8552363	821	587935.84485423
2	8559448	822	587935.76734525
2	8563793	823	587935.69034845
2	8572239	824	587935.61278017
2	8579312	825	587935.5352604
2	8583120	826	587935.45839277
2	8588674	827	587935.38117677
2	8597127	828	587935.30359734
2	8605351	829	587935.2259629
2	8609136	830	587935.14902204
2	8615080	831	587935.07170889
2	8621282	832	587934.9944177
2	8629136	833	587934.91687326
2	8638174	834	587934.83916189
2	8647248	835	587934.76139052
2	8654216	836	587934.68386761
2	8658416	837	587934.6069171
2	8662235	838	587934.5300321
2	8669215	839	587934.45266686
2	8677592	840	587934.37504061
2	8681855	841	587934.29807581
2	8689805	842	587934.22049631
2	8695726	843	587934.14316766
2	8700848	844	587934.06600643
2	8704696	845	587933.98913584
2	8707755	846	587933.91229413
2	8711582	847	587933.83542079
2	8715269	848	587933.758549
2	8718862	849	587933.68171551
2	8727088	850	587933.60414615
2	8731060	851	587933.5271876
2	8735782	852	587933.45017431
2	8739613	853	587933.37331881
2	8744044	854	587933.29622827
2	8748448	855	587933.21921493
2	8756290	856	587933.14161307
2	8762604	857	587933.06436932
2	8764947	858	587932.98771877
2	8771986	859	587932.91029645
2	8777123	860	587932.83307811
2	8781810	861	587932.75598133
2	8785249	862	587932.67912086
2	8787744	863	587932.6024269
2	8791019	864	587932.52560394
2	8796547	865	587932.44843666
2	8805189	866	587932.37071845
2	8810839	867	587932.29352829
2	8815003	868	587932.21652519
2	8820614	869	587932.1393185
2	8825890	870	587932.06216041
2	8830345	871	587931.98520396
2	8835593	872	587931.90808875
2	8843333	873	587931.83050462
2	8851317	874	587931.75291314
2	8856249	875	587931.67575872
2	8861657	876	587931.59857888
2	8865982	877	587931.521611
2	8871330	878	587931.444516
2	8878227	879	587931.367017
2	8884399	880	587931.28980259
2	8888445	881	587931.21283779
2	8894714	882	587931.13561873
2	8900248	883	587931.05848884
2	8905475	884	587930.98137353
2	8909824	885	587930.90443905
2	8913421	886	587930.82757649
2	8919934	887	587930.74646238
2	8929370	888	587930.66873835
2	8935820	889	587930.5913921
2	8941518	890	587930.51423949
2	8946926	891	587930.43700493
2	8953001	892	587930.35970751
2	8960682	893	587930.28209699
2	8968260	894	587930.20454158
2	8974465	895	587930.12723385
2	8985304	896	587930.04295179
2	8994700	897	587929.9619962
2	8999858	898	587929.88304264
2	9004702	899	587929.80597458
2	9014874	900	587929.72804637
2	9019934	901	587929.65095758
2	9024644	902	587929.5739246
2	9029546	903	587929.49682227
2	9032394	904	587929.42007757
2	9035969	905	587929.34325975
2	9041605	906	587929.26607271
2	9046790	907	587929.18894863
2	9054695	908	587929.11137715
2	9057550	909	587929.0346494
2	9060989	910	587928.95782413
2	9066116	911	587928.880666
2	9068895	912	587928.8038976
2	9074319	913	587928.72672311
2	9082706	914	587928.6490666
2	9088448	915	587928.57186132
2	9093246	916	587928.49480881
2	9097767	917	587928.41778455
2	9110531	918	587928.33581568
2	9115953	919	587928.25867729
2	9125076	920	587928.18089079
2	9131274	921	587928.10358925
2	9135150	922	587928.02671457
2	9140269	923	587927.9495346
2	9148929	924	587927.86824529
2	9156568	925	587927.79064986
2	9159690	926	587927.71385504
2	9165094	927	587927.63661941
2	9170210	928	587927.55948512
2	9178113	929	587927.48202857
2	9181950	930	587927.40504575
2	9187121	931	587927.32795739
2	9191253	932	587927.25099053
2	9195598	933	587927.17402573
2	9200595	934	587927.09692962
2	9202983	935	587927.02021975
2	9209807	936	587926.94277239
2	9215555	937	587926.86549355
2	9218113	938	587926.78879226
2	9220660	939	587926.71209863
2	9228451	940	587926.63449875
2	9230881	941	587926.55779853
2	9235327	942	587926.48079452
2	9241402	943	587926.40352183
2	9246033	944	587926.32648555
2	9249784	945	587926.24952075
2	9254987	946	587926.1724082
2	9262645	947	587926.09487296
2	9266888	948	587926.01790816
2	9272421	949	587925.94074335
2	9278013	950	587925.86354368
2	9285098	951	587925.78602876
2	9292321	952	587925.7085306
2	9296454	953	587925.63149659
2	9304359	954	587925.55388612
2	9311807	955	587925.47640963
2	9314366	956	587925.39974133
2	9321412	957	587925.32238937
2	9327737	958	587925.24510495
2	9335570	959	587925.16766297
2	9341987	960	587925.09035744
2	9347941	961	587925.01311359
2	9352891	962	587924.93609314
2	9358511	963	587924.85896852
2	9363069	964	587924.78195193
2	9367526	965	587924.70496864
2	9372709	966	587924.62785404
2	9376847	967	587924.55093682
2	9381583	968	587924.47380317
2	9387104	969	587924.39664332
2	9393570	970	587924.31924884
2	9400274	971	587924.24183297
2	9404508	972	587924.16484861
2	9409808	973	587924.08766539
2	9414648	974	587924.01058705
2	9421705	975	587923.93316482
2	9427611	976	587923.85591976
2	9434217	977	587923.7785778
2	9440086	978	587923.70137029
2	9448153	979	587923.62380075
2	9452258	980	587923.54686731
2	9458945	981	587923.46950459
2	9461109	982	587923.39286851
2	9464900	983	587923.31599356
2	9473014	984	587923.23848029
2	9475229	985	587923.16185856
2	9480564	986	587923.08469725
2	9484159	987	587923.00787304
2	9488252	988	587922.93091646
2	9493249	989	587922.85382035
2	9496525	990	587922.77701042
2	9502122	991	587922.69979457
2	9507467	992	587922.62264099