version 2
run General-0-20140518-16:14:57-23531
attr configname General
attr datetime 20140518-16:14:57
attr experiment General
attr inifile omnetpp.ini
attr iterationvars ""
attr iterationvars2 $repetition=0
attr measurement ""
attr network WSN
attr processid 23531
attr repetition 0
attr replication #0
attr resultdir results
attr runnumber 0
attr seedset 0

vector 2  WSN.statistic  networkEnergy:vector  ETV
attr title  "Node energy, vector"
vector 3  WSN.statistic  sensorEnergy:vector  ETV
attr title  "Sensor energy, vector"
2	198	0	588000
2	1578	1	587999.923462
2	3155	2	587999.846924
2	4820	3	587999.770386
2	7006	4	587999.693848
2	8595	5	587999.61731
2	10172	6	587999.540772
2	12844	7	587999.46406412
2	15437	8	587999.38735623
2	17632	9	587999.3106707
2	20837	10	587999.23377057
2	26552	11	587999.15655303
2	28871	12	587999.07984515
2	34323	13	587999.0025279
2	41168	14	587998.92508865
2	49372	15	587998.84726776
2	55905	16	587998.76977297
2	66736	17	587998.6915314
2	78974	18	587998.6130961
2	90282	19	587998.5346819
2	103281	20	587998.45602858
2	124050	21	587998.37595918
2	134012	22	587998.29794765
2	151386	23	587998.21843222
2	175019	24	587998.13780903
2	196141	25	587998.05783651
2	218014	26	587997.97756614
2	243210	27	587997.89658347
2	276476	28	587997.81420172
2	298898	29	587997.73379998
2	329207	30	587997.65202303
2	355519	31	587997.57079626
2	394506	32	587997.48736214
2	416995	33	587997.40701976
2	453834	34	587997.32398661
2	496344	35	587997.23976403
2	517885	36	587997.15954342
2	560244	37	587997.07533006
2	594139	38	587996.99305498
2	636732	39	587996.90884907
2	667779	40	587996.82680916
2	708577	41	587996.74312456
2	745594	42	587996.66007354
2	788940	43	587996.57568781
2	825875	44	587996.49275017
2	867267	45	587996.40888339
2	904897	46	587996.32551071
2	945667	47	587996.24190302
2	977209	48	587996.15983847
2	1022912	49	587996.07494387
2	1064520	50	587995.99102352
2	1096446	51	587995.90900964
2	1132021	52	587995.82613088
2	1173032	53	587995.74220852
2	1208592	54	587995.65922058
2	1239008	55	587995.57753396
2	1274715	56	587995.49453088
2	1306634	57	587995.41230711
2	1342950	58	587995.32940891
2	1369908	59	587995.24811632
2	1405878	60	587995.16530782
2	1439601	61	587995.0825951
2	1473347	62	587995.00011449
2	1499143	63	587994.91916525
2	1532665	64	587994.8367384
2	1561447	65	587994.75524889
2	1588357	66	587994.67425661
2	1615722	67	587994.59283016
2	1644053	68	587994.51123232
2	1670040	69	587994.43030339
2	1695230	70	587994.34945471
2	1723574	71	587994.26794262
2	1751064	72	587994.18658386
2	1772211	73	587994.1064986
2	1801354	74	587994.02495957
2	1826060	75	587993.94409008
2	1843716	76	587993.86454764
2	1864864	77	587993.78438166
2	1895610	78	587993.70251193
2	1923222	79	587993.62115359
2	1945992	80	587993.54078295
2	1967398	81	587993.46067725
2	2002081	82	587993.37788943
2	2023076	83	587993.29764491
2	2045036	84	587993.21737058
2	2069491	85	587993.13678834
2	2096367	86	587993.05556184
2	2123687	87	587992.97430011
2	2149520	88	587992.89326239
2	2178064	89	587992.81151951
2	2204412	90	587992.73036694
2	2228959	91	587992.64981308
2	2248924	92	587992.56993453
2	2273383	93	587992.48929806
2	2297270	94	587992.40852488
2	2333493	95	587992.32009445
2	2358115	96	587992.23896171
2	2380520	97	587992.15867652
2	2399714	98	587992.07894561
2	2424545	99	587991.99800044
2	2454124	100	587991.91642416
2	2473984	101	587991.83645954
2	2497245	102	587991.75607647
2	2525077	103	587991.67467056
2	2548312	104	587991.59415255
2	2576355	105	587991.51282396
2	2591755	106	587991.4338381
2	2618719	107	587991.35258746
2	2645733	108	587991.26995437
2	2669132	109	587991.18512019
2	2686232	110	587991.1057083
2	2709441	111	587991.02528049
2	2728475	112	587990.94560331
2	2753063	113	587990.86478399
2	2777048	114	587990.78415014
2	2791803	115	587990.70528686
2	2807629	116	587990.62610885
2	2823585	117	587990.54692546
2	2841010	118	587990.46745179
2	2868319	119	587990.38623381
2	2886204	120	587990.306694
2	2902914	121	587990.22741318
2	2922543	122	587990.1476107
2	2935758	123	587990.06899549
2	2950203	124	587989.99016854
2	2969176	125	587989.91049059
2	2986673	126	587989.83114613
2	3001806	127	587989.75199077
2	3016456	128	587989.67304848
2	3034434	129	587989.59346564
2	3052162	130	587989.51412455
2	3066729	131	587989.4351955
2	3084712	132	587989.35573919
2	3099440	133	587989.27684442
2	3114458	134	587989.19793273
2	3125723	135	587989.11969026
2	3140122	136	587989.04088316
2	3150963	137	587988.96264017
2	3167121	138	587988.88356266
2	3180075	139	587988.80501217
2	3197022	140	587988.72561482
2	3209592	141	587988.64714443
2	3221711	142	587988.56851057
2	3238675	143	587988.48926693
2	3257847	144	587988.40953019
2	3268145	145	587988.33145312
2	3286240	146	587988.25101835
2	3302778	147	587988.16776216
2	3311403	148	587988.08988219
2	3324120	149	587988.01130046
2	3334930	150	587987.93315007
2	3347136	151	587987.8546795
2	3360934	152	587987.77591417
2	3377475	153	587987.69661411
2	3396504	154	587987.61697821
2	3408523	155	587987.53852207
2	3420343	156	587987.46012543
2	3434611	157	587987.3812551
2	3447300	158	587987.30280773
2	3465420	159	587987.22335237
2	3475221	160	587987.14525408
2	3491052	161	587987.06620302
2	3509227	162	587986.98677875
2	3525483	163	587986.90750131
2	3541251	164	587986.82841624
2	3549233	165	587986.7507818
2	3567910	166	587986.67113336
2	3579011	167	587986.59279497
2	3588729	168	587986.5147359
2	3603247	169	587986.435748
2	3616177	170	587986.3571234
2	3632640	171	587986.27797631
2	3646459	172	587986.19915718
2	3663398	173	587986.11990605
2	3680936	174	587986.04057002
2	3692517	175	587985.96238021
2	3705253	176	587985.88370005
2	3721342	177	587985.80454751
2	3735756	178	587985.72561521
2	3746708	179	587985.64731887
2	3761897	180	587985.56823281
2	3778230	181	587985.48888858
2	3787146	182	587985.411066
2	3800600	183	587985.33229896
2	3813165	184	587985.25392618
2	3829971	185	587985.17457818
2	3843724	186	587985.09582159
2	3859008	187	587985.01675133
2	3871787	188	587984.93826908
2	3884316	189	587984.85967517
2	3899775	190	587984.78063457
2	3912177	191	587984.70214134
2	3926541	192	587984.6233345
2	3940794	193	587984.544518
2	3958685	194	587984.46478821
2	3973856	195	587984.38584241
2	3987652	196	587984.30706514
2	4002681	197	587984.22817139
2	4016475	198	587984.1494954
2	4028021	199	587984.07123865
2	4038116	200	587983.99304606
2	4054797	201	587983.90799168
2	4069082	202	587983.82923153
2	4083908	203	587983.75019142
2	4096047	204	587983.67177997
2	4109721	205	587983.59299251
2	4120413	206	587983.51483787
2	4134796	207	587983.43598067
2	4154130	208	587983.35622507
2	4164224	209	587983.27810131
2	4178410	210	587983.19937549
2	4191453	211	587983.12063103
2	4204955	212	587983.04187974
2	4214911	213	587982.96370234
2	4224957	214	587982.88562682
2	4235293	215	587982.80751775
2	4246343	216	587982.7292073
2	4259203	217	587982.65067241
2	4266598	218	587982.57306198
2	4281081	219	587982.49418004
2	4292622	220	587982.4156759
2	4309760	221	587982.33631157
2	4325350	222	587982.25718763
2	4336296	223	587982.17897438
2	4345009	224	587982.10109159
2	4356942	225	587982.02269394
2	4367195	226	587981.94455419
2	4376459	227	587981.86654243
2	4390260	228	587981.78771791
2	4400234	229	587981.70968611
2	4407643	230	587981.63215043
2	4420199	231	587981.55354194
2	4435030	232	587981.47470785
2	4445766	233	587981.39653618
2	4458965	234	587981.31777074
2	4469835	235	587981.23957385
2	4484884	236	587981.16080982
2	4496221	237	587981.08248835
2	4506614	238	587981.00453516
2	4516618	239	587980.92659909
2	4533551	240	587980.8472413
2	4546133	241	587980.76879332
2	4559635	242	587980.69002622
2	4565798	243	587980.61263282
2	4575805	244	587980.53450017
2	4587194	245	587980.45626884
2	4604347	246	587980.37677796
2	4617219	247	587980.29814179
2	4624911	248	587980.22051426
2	4632528	249	587980.14299292
2	4643911	250	587980.06478575
2	4652234	251	587979.98706138
2	4663261	252	587979.90884817
2	4672106	253	587979.83105164
2	4680444	254	587979.75331166
2	4692353	255	587979.67489492
2	4705157	256	587979.59633094
2	4713279	257	587979.51851754
2	4725327	258	587979.44012005
2	4736390	259	587979.36179103
2	4746730	260	587979.28361227
2	4758238	261	587979.20526342
2	4767004	262	587979.12738828
2	4773670	263	587979.04997363
2	4783230	264	587978.97215846
2	4791704	265	587978.89439295
2	4801834	266	587978.81639445
2	4807957	267	587978.73899058
2	4817601	268	587978.66107706
2	4826076	269	587978.58341206
2	4833614	270	587978.5058409
2	4840922	271	587978.42828668
2	4852063	272	587978.34890673
2	4864420	273	587978.26555517
2	4879249	274	587978.18661079
2	4882719	275	587978.10975363
2	4893776	276	587978.03136303
2	4898846	277	587977.95425755
2	4903983	278	587977.87712223
2	4911949	279	587977.7994648
2	4916992	280	587977.72230308
2	4922158	281	587977.64515767
2	4933070	282	587977.5669423
2	4942959	283	587977.48899446
2	4951920	284	587977.41109703
2	4959742	285	587977.33345959
2	4965916	286	587977.25610149
2	4976566	287	587977.17784836
2	4983288	288	587977.10045857
2	4993194	289	587977.02250601
2	5003240	290	587976.94438906
2	5014266	291	587976.86601024
2	5019395	292	587976.78877874
2	5027161	293	587976.71120282
2	5036585	294	587976.63324724
2	5043799	295	587976.55579792
2	5052609	296	587976.47799566
2	5062140	297	587976.39991038
2	5069167	298	587976.3224062
2	5076261	299	587976.24483585
2	5081315	300	587976.16767821
2	5088848	301	587976.09014716
2	5097775	302	587976.01232417
2	5108748	303	587975.93416736
2	5114755	304	587975.8568762
2	5124146	305	587975.77895331
2	5129404	306	587975.7017116
2	5136991	307	587975.62411235
2	5143420	308	587975.5467255
2	5150698	309	587975.46914353
2	5157691	310	587975.39156978
2	5162585	311	587975.31452544
2	5173951	312	587975.23607396
2	5188717	313	587975.15729067
2	5196845	314	587975.07962112
2	5204244	315	587975.00207888
2	5210347	316	587974.92469347
2	5216704	317	587974.84728969
2	5221573	318	587974.77022369
2	5233440	319	587974.691793
2	5245376	320	587974.61341467
2	5252743	321	587974.53583613
2	5260139	322	587974.45810893
2	5269013	323	587974.38023085
2	5283288	324	587974.30142433
2	5286259	325	587974.22459887
2	5294300	326	587974.14691128
2	5304491	327	587974.06888253
2	5309927	328	587973.99165677
2	5315892	329	587973.91441751
2	5324158	330	587973.83661391
2	5330715	331	587973.7592353
2	5341261	332	587973.68109134
2	5349929	333	587973.60327803
2	5359424	334	587973.52539651
2	5368382	335	587973.44758079
2	5374902	336	587973.37024674
2	5381402	337	587973.29275521
2	5391546	338	587973.2147661
2	5399236	339	587973.13701184
2	5406081	340	587973.05951682
2	5412730	341	587972.98206408
2	5419097	342	587972.9046491
2	5430611	343	587972.82619218
2	5442045	344	587972.74792391
2	5450283	345	587972.67023852
2	5460542	346	587972.59212873
2	5477032	347	587972.50751835
2	5484876	348	587972.42926853
2	5495801	349	587972.3510956
2	5504491	350	587972.27330825
2	5510582	351	587972.19591877
2	5519754	352	587972.11801347
2	5523625	353	587972.04105682
2	5530727	354	587971.96337719
2	5536330	355	587971.88614321
2	5543616	356	587971.80860746
2	5550290	357	587971.73118919
2	5556032	358	587971.65395628
2	5560833	359	587971.57684379
2	5567921	360	587971.49923744
2	5576487	361	587971.42146602
2	5587285	362	587971.34315984
2	5596404	363	587971.2652381
2	5603223	364	587971.18768079
2	5610793	365	587971.11001003
2	5622649	366	587971.0316259
2	5633860	367	587970.95332796
2	5643271	368	587970.87534575
2	5652355	369	587970.79745008
2	5655133	370	587970.72071754
2	5661555	371	587970.64315711
2	5668638	372	587970.56562267
2	5675745	373	587970.48812686
2	5687366	374	587970.40978939
2	5694139	375	587970.33236051
2	5700506	376	587970.25489736
2	5705148	377	587970.17786697
2	5713769	378	587970.10003381
2	5722117	379	587970.02225435
2	5732342	380	587969.94422115
2	5739149	381	587969.86684944
2	5753742	382	587969.78813684
2	5764533	383	587969.70993512
2	5773493	384	587969.63202955
2	5785190	385	587969.55368424
2	5793880	386	587969.47583595
2	5804420	387	587969.39771097
2	5814731	388	587969.31964047
2	5818341	389	587969.24273939
2	5825111	390	587969.16532615
2	5829948	391	587969.08809332
2	5838331	392	587969.01046497
2	5849883	393	587968.93221355
2	5856788	394	587968.85469708
2	5866246	395	587968.77674971
2	5877279	396	587968.69856914
2	5887347	397	587968.6203126
2	5894306	398	587968.54278953
2	5901377	399	587968.46532656
2	5911339	400	587968.38728241
2	5917159	401	587968.31002222
2	5927726	402	587968.2319167
2	5937724	403	587968.15389321
2	5947600	404	587968.07575631
2	5958105	405	587967.99765358
2	5966922	406	587967.9198202
2	5973472	407	587967.84239224
2	5979889	408	587967.76486555
2	5985854	409	587967.68759135
2	5989127	410	587967.61075702
2	5998364	411	587967.53280369
2	6010350	412	587967.4545713
2	6018694	413	587967.37686418
2	6024068	414	587967.2996302
2	6029474	415	587967.22240451
2	6036480	416	587967.14487632
2	6041406	417	587967.06768474
2	6052214	418	587966.98946433
2	6063352	419	587966.91126751
2	6076498	420	587966.82796848
2	6085294	421	587966.74891831
2	6094518	422	587966.67110649
2	6103929	423	587966.59316
2	6112905	424	587966.51534765
2	6122155	425	587966.43742369
2	6127636	426	587966.36026272
2	6136033	427	587966.28253272
2	6150386	428	587966.19946548
2	6162061	429	587966.11942088
2	6175096	430	587966.04083823
2	6181161	431	587965.96352485
2	6191023	432	587965.88550374
2	6198350	433	587965.80795026
2	6205530	434	587965.73033145
2	6212374	435	587965.65285267
2	6222275	436	587965.57486866
2	6226742	437	587965.49782053
2	6230660	438	587965.42091857
2	6239536	439	587965.34316964
2	6246312	440	587965.26568551
2	6252346	441	587965.18829708
2	6259887	442	587965.11073187
2	6268166	443	587965.03307544
2	6278163	444	587964.95492198
2	6284319	445	587964.87747763
2	6293296	446	587964.7996605
2	6300578	447	587964.72207478
2	6313151	448	587964.64364275
2	6318216	449	587964.56656196
2	6327484	450	587964.48866315
2	6334825	451	587964.40827684
2	6350220	452	587964.32930508
2	6353983	453	587964.25243252
2	6361118	454	587964.17484903
2	6366693	455	587964.09762479
2	6377552	456	587964.01952087
2	6385565	457	587963.94183042
2	6394084	458	587963.86404471
2	6402041	459	587963.7862992
2	6409433	460	587963.70873367
2	6420099	461	587963.63049947
2	6429852	462	587963.55248072
2	6435337	463	587963.47528529
2	6445827	464	587963.39708099
2	6453914	465	587963.31945009
2	6462802	466	587963.24150494
2	6470470	467	587963.16390975
2	6475163	468	587963.0868912
2	6482668	469	587963.0093046
2	6489199	470	587962.93187716
2	6494553	471	587962.85465443
2	6503023	472	587962.77681568
2	6508800	473	587962.69954725
2	6514281	474	587962.62232149
2	6521741	475	587962.54457786
2	6527111	476	587962.46741255
2	6534353	477	587962.38989647
2	6541704	478	587962.31231413
2	6551487	479	587962.23427481
2	6559219	480	587962.15669994
2	6566716	481	587962.07915799
2	6573437	482	587962.00179289
2	6580968	483	587961.9243472
2	6588199	484	587961.84670844
2	6598525	485	587961.76862289
2	6607125	486	587961.6908746
2	6612585	487	587961.61362788
2	6619649	488	587961.53613642
2	6634485	489	587961.45283728
2	6641941	490	587961.37531274
2	6646484	491	587961.29825917
2	6655273	492	587961.22050399
2	6663542	493	587961.14282989
2	6669145	494	587961.06559591
2	6676134	495	587960.98807532
2	6684112	496	587960.91034812
2	6689899	497	587960.83299012
2	6693229	498	587960.75614147
2	6701726	499	587960.67844427
2	6709751	500	587960.60074088
2	6713828	501	587960.52376118
2	6721303	502	587960.44616906
2	6726505	503	587960.36906519
2	6730812	504	587960.29198923
2	6739083	505	587960.21425793
2	6743062	506	587960.13729469
2	6749315	507	587960.05988751
2	6757234	508	587959.98216637
2	6763884	509	587959.90466713
2	6770222	510	587959.8271932
2	6774126	511	587959.75020739
2	6783595	512	587959.6723103
2	6787869	513	587959.59533138
2	6793318	514	587959.51804511
2	6800573	515	587959.44053365
2	6808129	516	587959.36293968
2	6813662	517	587959.28566144
2	6816047	518	587959.20896144
2	6820757	519	587959.13189324
2	6831505	520	587959.05370517
2	6839076	521	587958.97613319
2	6847901	522	587958.89840741
2	6855557	523	587958.82073932
2	6860846	524	587958.74357038
2	6866476	525	587958.666397
2	6872340	526	587958.58904994
2	6878992	527	587958.51160566
2	6884108	528	587958.43443373
2	6890822	529	587958.35699327
2	6896890	530	587958.27962765
2	6900939	531	587958.20268698
2	6904005	532	587958.12590117
2	6910948	533	587958.04845274
2	6916077	534	587957.97123799
2	6921967	535	587957.8939743
2	6928653	536	587957.81662778
2	6935814	537	587957.7391694
2	6942518	538	587957.66169741
2	6946372	539	587957.58478723
2	6953653	540	587957.50722905
2	6958565	541	587957.4301814
2	6967151	542	587957.35235225
2	6972534	543	587957.27518723
2	6980785	544	587957.19747243
2	6989180	545	587957.11974769
2	6992979	546	587957.04285642
2	7001285	547	587956.9652268
2	7010105	548	587956.88750102
2	7014384	549	587956.81054951
2	7023838	550	587956.73257468
2	7028637	551	587956.65549044
2	7036487	552	587956.57781955
2	7050946	553	587956.49525788
2	7062017	554	587956.41504725
2	7065604	555	587956.33814482
2	7070377	556	587956.26106569
2	7075609	557	587956.18388271
2	7083458	558	587956.10622358
2	7086650	559	587956.02936855
2	7092797	560	587955.95204782
2	7097208	561	587955.87498625
2	7102030	562	587955.79788515
2	7107771	563	587955.72065061
2	7109460	564	587955.64409617
2	7115442	565	587955.5668269
2	7123007	566	587955.4892472
2	7129745	567	587955.41180127
2	7134943	568	587955.3346623
2	7137559	569	587955.25795441
2	7146375	570	587955.18013926
2	7149296	571	587955.10334123
2	7153171	572	587955.02635465
2	7159782	573	587954.94898833
2	7164690	574	587954.87187554
2	7169738	575	587954.79474926
2	7174253	576	587954.71769339
2	7181205	577	587954.64018992
2	7186908	578	587954.5629335
2	7190172	579	587954.48611655
2	7197012	580	587954.40868168
2	7206159	581	587954.33092977
2	7210035	582	587954.25403556
2	7222349	583	587954.16692842
2	7230598	584	587954.0877336
2	7233566	585	587954.01093477
2	7241076	586	587953.93328006
2	7246040	587	587953.85620774
2	7249574	588	587953.77931353
2	7258954	589	587953.69651893
2	7267381	590	587953.61795275
2	7272116	591	587953.54079003
2	7280733	592	587953.46304177
2	7291675	593	587953.38495014
2	7295522	594	587953.3080393
2	7300547	595	587953.23095877
2	7304348	596	587953.15406359
2	7311192	597	587953.07664415
2	7317792	598	587952.99926119
2	7324420	599	587952.92182658
2	7330466	600	587952.84436783
2	7333456	601	587952.76754494
2	7337514	602	587952.69052455
2	7343906	603	587952.61319295
2	7350997	604	587952.53566885
2	7356710	605	587952.45846165
2	7366276	606	587952.38058934
2	7371672	607	587952.30340753
2	7378497	608	587952.225842
2	7382718	609	587952.14886835
2	7388713	610	587952.07151749
2	7395150	611	587951.99418903
2	7402064	612	587951.91671699
2	7406111	613	587951.83982767
2	7409440	614	587951.76298258
2	7414061	615	587951.68592717
2	7417902	616	587951.60894226
2	7422413	617	587951.53188638
2	7429143	618	587951.45437486
2	7436886	619	587951.37671285
2	7444199	620	587951.29918404
2	7449996	621	587951.22194591
2	7455563	622	587951.14477788
2	7461562	623	587951.06750974
2	7469839	624	587950.98978971
2	7475149	625	587950.91267106
2	7482895	626	587950.83506581
2	7490311	627	587950.75746455
2	7497312	628	587950.68000944
2	7500621	629	587950.60313167
2	7504211	630	587950.52624568
2	7514829	631	587950.4456855
2	7525813	632	587950.36388185
2	7532296	633	587950.28649783
2	7536235	634	587950.20953238
2	7542080	635	587950.13214496
2	7551005	636	587950.0544109
2	7555254	637	587949.97743585
2	7562345	638	587949.9000121
2	7564198	639	587949.8234285
2	7568793	640	587949.74634188
2	7574033	641	587949.669107
2	7579497	642	587949.59189858
2	7583141	643	587949.51500437
2	7585896	644	587949.43823285
2	7590775	645	587949.36105429
2	7594189	646	587949.28419832
2	7597209	647	587949.20738915
2	7600499	648	587949.13055798
2	7604090	649	587949.05367199
2	7609356	650	587948.97645445
2	7618124	651	587948.89871904
2	7624163	652	587948.82133111
2	7630614	653	587948.74394418
2	7634616	654	587948.66689653
2	7637867	655	587948.59001054
2	7640597	656	587948.51326951
2	7646221	657	587948.43599716
2	7653821	658	587948.35844804
2	7661782	659	587948.28078416
2	7666289	660	587948.20371185
2	7670687	661	587948.12665598
2	7674160	662	587948.0497912
2	7679072	663	587947.97270589
2	7684449	664	587947.89547191
2	7689156	665	587947.81841604
2	7696821	666	587947.7407983
2	7703451	667	587947.66337573
2	7710285	668	587947.58590216
2	7718381	669	587947.50818822
2	7725377	670	587947.43063757
2	7730627	671	587947.35351511
2	7735385	672	587947.27631235
2	7742137	673	587947.19890192
2	7749824	674	587947.12129743
2	7754187	675	587947.0442932
2	7757039	676	587946.96753662
2	7764959	677	587946.88979681
2	7767969	678	587946.81300434
2	7770468	679	587946.73629646
2	7777497	680	587946.65878213
2	7784171	681	587946.58136059
2	7789532	682	587946.50405834
2	7795143	683	587946.42690964
2	7805191	684	587946.34903166
2	7811648	685	587946.27162149
2	7817826	686	587946.19425937
2	7823938	687	587946.1169894
2	7829484	688	587946.0397472
2	7833337	689	587945.96281537
2	7838922	690	587945.88553805
2	7846258	691	587945.8080246
2	7853124	692	587945.73054462
2	7860204	693	587945.65305637
2	7871020	694	587945.57057694
2	7873517	695	587945.49385262
2	7879453	696	587945.41662006
2	7882594	697	587945.339844
2	7887045	698	587945.26273271
2	7893491	699	587945.18534014
2	7895504	700	587945.10872623
2	7904074	701	587945.03095101
2	7906877	702	587944.95420006
2	7912914	703	587944.87685907
2	7916618	704	587944.7999578
2	7923096	705	587944.7225321
2	7926628	706	587944.64566149
2	7933604	707	587944.56822055
2	7937345	708	587944.49128232
2	7940656	709	587944.41438652
2	7947287	710	587944.33702238
2	7951936	711	587944.25996305
2	7954761	712	587944.18323728
2	7961357	713	587944.1057992
2	7969271	714	587944.02814272
2	7972795	715	587943.95127754
2	7980863	716	587943.87359102
2	7987674	717	587943.79614031
2	7998227	718	587943.71804595
2	8003065	719	587943.64096485
2	8015137	720	587943.56259119
2	8019346	721	587943.48563269
2	8023403	722	587943.40859471
2	8025035	723	587943.33204849
2	8030016	724	587943.25482273
2	8033051	725	587943.1780656
2	8041034	726	587943.10046436
2	8047948	727	587943.02296486
2	8055925	728	587942.94538928
2	8067977	729	587942.86119331
2	8074209	730	587942.78392978
2	8081728	731	587942.70631555
2	8087607	732	587942.62901152
2	8089474	733	587942.55243947
2	8096544	734	587942.47493505
2	8102404	735	587942.39753296
2	8107784	736	587942.32031542
2	8114426	737	587942.24286813
2	8118042	738	587942.16600071
2	8122514	739	587942.08894929
2	8128824	740	587942.01151353
2	8131547	741	587941.93480444
2	8138220	742	587941.85738006
2	8142318	743	587941.7803753
2	8146385	744	587941.70338808
2	8154419	745	587941.62241464
2	8161979	746	587941.54242399
2	8166352	747	587941.46542866
2	8175897	748	587941.38740281
2	8179937	749	587941.31046721
2	8187360	750	587941.23287645
2	8191271	751	587941.15594998
2	8195458	752	587941.07894863
2	8201348	753	587941.00159166
2	8207249	754	587940.92436844
2	8212891	755	587940.84715521
2	8218976	756	587940.76983661
2	8222745	757	587940.6928445
2	8229377	758	587940.61542666
2	8235046	759	587940.53820376
2	8241524	760	587940.46083383
2	8248049	761	587940.38342996
2	8252184	762	587940.30647067
2	8260083	763	587940.22880635
2	8265462	764	587940.15166293
2	8274224	765	587940.07397952
2	8278131	766	587939.99702287
2	8295027	767	587939.91197161
2	8302870	768	587939.8344539
2	8308327	769	587939.75718094
2	8317372	770	587939.67931454
2	8320539	771	587939.60245977
2	8326149	772	587939.52523155
2	8332672	773	587939.44789619
2	8335225	774	587939.37121654
2	8343104	775	587939.29355538
2	8346976	776	587939.21663186
2	8354443	777	587939.13909944
2	8361536	778	587939.06156801
2	8371915	779	587938.98196781
2	8380838	780	587938.89988888
2	8385632	781	587938.82283777
2	8392109	782	587938.74548358
2	8397097	783	587938.66842964
2	8403681	784	587938.59102468
2	8411037	785	587938.51342597
2	8414921	786	587938.436427
2	8419431	787	587938.35935469
2	8426479	788	587938.28178723
2	8433891	789	587938.20419108
2	8438374	790	587938.12715131
2	8443362	791	587938.04999017
2	8449228	792	587937.97267235
2	8456592	793	587937.89508178
2	8460059	794	587937.81822288
2	8466204	795	587937.74082518
2	8470714	796	587937.66376931
2	8477630	797	587937.58631063
2	8483713	798	587937.50898624
2	8488045	799	587937.43188216
2	8492395	800	587937.35487449
2	8497056	801	587937.27777821
2	8501080	802	587937.20077918
2	8506044	803	587937.12360683
2	8513155	804	587937.04616599
2	8519586	805	587936.96880369
2	8525812	806	587936.89138292
2	8529760	807	587936.81438684
2	8532116	808	587936.73768776
2	8538606	809	587936.66026852
2	8543903	810	587936.58301419
2	8549621	811	587936.50578021
2	8554720	812	587936.42861429
2	8559463	813	587936.35148956
2	8565901	814	587936.27404745
2	8569977	815	587936.19720472
2	8578403	816	587936.11945581
2	8585562	817	587936.04207253
2	8590984	818	587935.96484856
2	8599184	819	587935.88711315
2	8604561	820	587935.80989561
2	8609187	821	587935.73290353
2	8613759	822	587935.65585526
2	8620191	823	587935.57849975
2	8623541	824	587935.5016225
2	8630475	825	587935.42411334
2	8639400	826	587935.3463467
2	8644383	827	587935.26921434
2	8651218	828	587935.19170654
2	8656012	829	587935.11461813
2	8663471	830	587935.03706796
2	8670261	831	587934.9597434
2	8676744	832	587934.88237319
2	8684247	833	587934.80479122
2	8687861	834	587934.72795989
2	8695648	835	587934.65036593
2	8697282	836	587934.57381971
2	8699837	837	587934.4971036
2	8711784	838	587934.41600986
2	8719826	839	587934.33516048
2	8726216	840	587934.25777678
2	8730515	841	587934.18067582
2	8734877	842	587934.10369198
2	8744175	843	587934.02584006
2	8747257	844	587933.94905922
2	8752249	845	587933.87184943
2	8760955	846	587933.79406507
2	8768434	847	587933.71652407
2	8775502	848	587933.63903972
2	8783834	849	587933.56137794
2	8787767	850	587933.48444161
2	8794360	851	587933.40709048
2	8802246	852	587933.32940151
2	8806374	853	587933.25243593
2	8810472	854	587933.17539816
2	8814926	855	587933.09833407
2	8818802	856	587933.02147034
2	8823816	857	587932.94432833
2	8829978	858	587932.86700517
2	8835101	859	587932.78991853
2	8839823	860	587932.71286648
2	8846653	861	587932.63550113
2	8853728	862	587932.55800873
2	8860359	863	587932.48050515
2	8867337	864	587932.40297024
2	8873890	865	587932.32566416
2	8877383	866	587932.2487918
2	8882997	867	587932.17154569
2	8887582	868	587932.09455563
2	8891059	869	587932.01766964
2	8894969	870	587931.94072824
2	8898939	871	587931.86372778
2	8904516	872	587931.78656786
2	8910006	873	587931.70933388
2	8919884	874	587931.63132995
2	8926012	875	587931.55409925
2	8928582	876	587931.47742218
2	8935071	877	587931.40004342
2	8939516	878	587931.32302132
2	8946229	879	587931.2454868
2	8951130	880	587931.16829969
2	8958643	881	587931.09067363
2	8962381	882	587931.01378215
2	8968828	883	587930.9364325
2	8979322	884	587930.85750843
2	8987971	885	587930.77760946
2	8995365	886	587930.70007106
2	9007142	887	587930.62046891
2	9023585	888	587930.53444619
2	9032197	889	587930.4497697
2	9037862	890	587930.37254394
2	9043621	891	587930.29519994
2	9047179	892	587930.21826676
2	9053341	893	587930.14090855
2	9061544	894	587930.0631791
2	9066113	895	587929.98608074
2	9071775	896	587929.9087793
2	9078887	897	587929.83125594
2	9086017	898	587929.75369779
2	9091493	899	587929.67644109
2	9097350	900	587929.59918031
2	9104969	901	587929.52156804
2	9110372	902	587929.44425467
2	9115265	903	587929.36719635
2	9124387	904	587929.28922135
2	9134601	905	587929.2111028
2	9141364	906	587929.1337145
2	9149113	907	587929.0561858
2	9154795	908	587928.97885982
2	9160062	909	587928.90164228
2	9165957	910	587928.82436782
2	9172507	911	587928.74690187
2	9175352	912	587928.67013042
2	9181916	913	587928.59273258
2	9186996	914	587928.51555327
2	9192379	915	587928.43828734
2	9197745	916	587928.36109353
2	9205863	917	587928.278947
2	9212938	918	587928.199853
2	9219271	919	587928.12241495
2	9223168	920	587928.04544554
2	9228677	921	587927.96823288
2	9236968	922	587927.89052351
2	9241701	923	587927.81339729
2	9246261	924	587927.7363362
2	9250744	925	587927.65931796
2	9254476	926	587927.5823779
2	9264018	927	587927.5044247
2	9271473	928	587927.42686875
2	9277037	929	587927.34957633
2	9280685	930	587927.27269856
2	9287547	931	587927.19512837
2	9295671	932	587927.11740123
2	9301475	933	587927.04010525
2	9307066	934	587926.96278805
2	9309621	935	587926.88607194
2	9317356	936	587926.80851463
2	9324583	937	587926.73095732
2	9328745	938	587926.65390966
2	9333210	939	587926.57689174
2	9337079	940	587926.49991298
2	9341250	941	587926.42292836
2	9345273	942	587926.34590845
2	9351483	943	587926.26847684
2	9356466	944	587926.19127965
2	9367009	945	587926.11306632
2	9370787	946	587926.03612824
2	9374903	947	587925.95908058
2	9381200	948	587925.88166028
2	9384496	949	587925.80477429
2	9388371	950	587925.72789652
2	9391848	951	587925.65101053
2	9396194	952	587925.57396287
2	9403420	953	587925.49640556
2	9407589	954	587925.41942604
2	9412231	955	587925.34229381
2	9418972	956	587925.26482999
2	9422193	957	587925.18806196
2	9431454	958	587925.11019708
2	9436838	959	587925.03299092
2	9441812	960	587924.95577338
2	9445276	961	587924.87894855
2	9450650	962	587924.80180971
2	9456993	963	587924.72446873
2	9460573	964	587924.64760051
2	9464425	965	587924.57070923
2	9468059	966	587924.49377758
2	9472459	967	587924.41672171
2	9476692	968	587924.33967405
2	9483995	969	587924.26195461
2	9486657	970	587924.18523897
2	9493158	971	587924.10784301
2	9497759	972	587924.03080471
2	9504359	973	587923.95344259
2	9509463	974	587923.87626768
2	9515672	975	587923.79889039
2	9519066	976	587923.72204603
2	9524692	977	587923.64477004
2	9528587	978	587923.56787282
2	9533405	979	587923.49072365
2	9541713	980	587923.41296738
2	9544830	981	587923.33616984
2	9550554	982	587923.25888563
2	9557617	983	587923.18135226
2	9562013	984	587923.10429638
2	9564239	985	587923.02767234
2	9570404	986	587922.95042101
2	9576639	987	587922.87311476
2	9584180	988	587922.79552228
2	9588252	989	587922.71854052
2	9593691	990	587922.6413597
2	9599303	991	587922.56406423
2	9603759	992	587922.48700014