version 2
run General-0-20140519-09:57:21-5850
attr configname General
attr datetime 20140519-09:57:21
attr experiment General
attr inifile omnetpp.ini
attr iterationvars ""
attr iterationvars2 $repetition=0
attr measurement ""
attr network WSN
attr processid 5850
attr repetition 0
attr replication #0
attr resultdir results
attr runnumber 0
attr seedset 0

vector 2  WSN.statistic  networkEnergy:vector  ETV
attr title  "Node energy, vector"
vector 3  WSN.statistic  sensorEnergy:vector  ETV
attr title  "Sensor energy, vector"
2	198	0	2352
2	1578	1	2351.923462
2	3155	2	2351.846924
2	4820	3	2351.770386
2	7006	4	2351.693848
2	8595	5	2351.61731
2	10172	6	2351.540772
2	12844	7	2351.4640641148
2	15437	8	2351.3873562295
2	17632	9	2351.310670694
2	20837	10	2351.2337705739
2	26552	11	2351.156553033
2	28871	12	2351.0798451477
2	34323	13	2351.0025279028
2	41168	14	2350.9250886525
2	49372	15	2350.8472677617
2	55905	16	2350.7697729727
2	66736	17	2350.6915314062
2	78974	18	2350.6130960944
2	90282	19	2350.5346819001
2	103281	20	2350.4560285828
2	124050	21	2350.3759591817
2	134011	22	2350.2979476511
2	151385	23	2350.2184322238
2	175017	24	2350.1378090273
2	196142	25	2350.0578360439
2	218014	26	2349.977565672
2	243209	27	2349.896583004
2	276473	28	2349.8142012587
2	298892	29	2349.7337995147
2	329200	30	2349.6520225623
2	355509	31	2349.5707957924
2	394494	32	2349.4873616716
2	416979	33	2349.4070192948
2	453814	34	2349.3239861446
2	496322	35	2349.2397635645
2	517857	36	2349.1595429591
2	560215	37	2349.0753291328
2	594103	38	2348.99305405
2	636692	39	2348.9088481479
2	667734	40	2348.8268082345
2	708525	41	2348.7431236363
2	745535	42	2348.6600726088
2	788873	43	2348.5756868829
2	825802	44	2348.4927492419
2	867182	45	2348.4088824646
2	904806	46	2348.3255097815
2	945565	47	2348.2419020959
2	977095	48	2348.1598375515
2	1022792	49	2348.0749429505
2	1064389	50	2347.9910225949
2	1096301	51	2347.9090087149
2	1131869	52	2347.8261299604
2	1172867	53	2347.7422076021
2	1208413	54	2347.6592196575
2	1238816	55	2347.5775330349
2	1274515	56	2347.4945299577
2	1306420	57	2347.4123061919
2	1342723	58	2347.329407986
2	1369669	59	2347.2481153964
2	1405626	60	2347.1653068991
2	1439336	61	2347.0825941791
2	1473071	62	2347.00011357
2	1498857	63	2346.9191643347
2	1532370	64	2346.83673748
2	1561138	65	2346.7552479763
2	1588031	66	2346.67425569
2	1615392	67	2346.5928292432
2	1643711	68	2346.5112314053
2	1669687	69	2346.4303024725
2	1694871	70	2346.3494537915
2	1723207	71	2346.2679417073
2	1750689	72	2346.1865829486
2	1771828	73	2346.1064976889
2	1800962	74	2346.0249586542
2	1825658	75	2345.9440891669
2	1843307	76	2345.8645467229
2	1864446	77	2345.7843807494
2	1895184	78	2345.7025110145
2	1922787	79	2345.6211526803
2	1945553	80	2345.5407820373
2	1966952	81	2345.4606763423
2	2001628	82	2345.3778885195
2	2022614	83	2345.2976439984
2	2044567	84	2345.2173696727
2	2069019	85	2345.1367874298
2	2095890	86	2345.0555609299
2	2123205	87	2344.974299204
2	2149032	88	2344.893261478
2	2177560	89	2344.8115186037
2	2203901	90	2344.7303660327
2	2228443	91	2344.6498121684
2	2248402	92	2344.5699336238
2	2272849	93	2344.4892971496
2	2296725	94	2344.4085239711
2	2332939	95	2344.3200935466
2	2357556	96	2344.2389608001
2	2379954	97	2344.158675614
2	2399138	98	2344.0789447024
2	2423958	99	2343.9979995326
2	2453530	100	2343.9164232519
2	2473382	101	2343.8364586385
2	2496637	102	2343.7560755672
2	2524460	103	2343.674669652
2	2547686	104	2343.5941516441
2	2575717	105	2343.5128230541
2	2591114	106	2343.4338371955
2	2618070	107	2343.3525865579
2	2645076	108	2343.2699534704
2	2668467	109	2343.1851192839
2	2685558	110	2343.1057073956
2	2708758	111	2343.0252795828
2	2727789	112	2342.945602408
2	2752378	113	2342.8647807919
2	2776357	114	2342.784146937
2	2791104	115	2342.7052836649
2	2806920	116	2342.6261056466
2	2822871	117	2342.5469222609
2	2840288	118	2342.4674485947
2	2867589	119	2342.386230614
2	2885470	120	2342.3066907973
2	2902175	121	2342.2274099789
2	2921797	122	2342.1476075071
2	2935006	123	2342.0689922895
2	2949440	124	2341.9901653416
2	2968410	125	2341.9104873911
2	2985903	126	2341.8311429361
2	3001031	127	2341.7519875769
2	3015673	128	2341.6730452781
2	3033644	129	2341.5934624409
2	3051366	130	2341.5141213483
2	3065928	131	2341.4351923081
2	3083909	132	2341.3557359884
2	3098631	133	2341.276841221
2	3113644	134	2341.1979295359
2	3124904	135	2341.1196870613
2	3139300	136	2341.0408799684
2	3150132	137	2340.9626369737
2	3166285	138	2340.8835594598
2	3179230	139	2340.8050089775
2	3196173	140	2340.7256116285
2	3208737	141	2340.6471412336
2	3220853	142	2340.5685073773
2	3237813	143	2340.4892637384
2	3256984	144	2340.4095269925
2	3267278	145	2340.3314499248
2	3285364	146	2340.2510151548
2	3301896	147	2340.1677589646
2	3310520	148	2340.0898789985
2	3323232	149	2340.0112972629
2	3334039	150	2339.9331468754
2	3346238	151	2339.8546763055
2	3360033	152	2339.7759109799
2	3376570	153	2339.6966109129
2	3395595	154	2339.6169750127
2	3407609	155	2339.5385188737
2	3419427	156	2339.4601222323
2	3433692	157	2339.3812519087
2	3446381	158	2339.3028045415
2	3464498	159	2339.2233491793
2	3474295	160	2339.1452508907
2	3490121	161	2339.0661998282
2	3508289	162	2338.9867755575
2	3524540	163	2338.9074981234
2	3540303	164	2338.8284130509
2	3548281	165	2338.7507786087
2	3566956	166	2338.6711301663
2	3578054	167	2338.5927917812
2	3587766	168	2338.5147327067
2	3602277	169	2338.4357448133
2	3615204	170	2338.357120211
2	3631664	171	2338.277973124
2	3645478	172	2338.1991539888
2	3662414	173	2338.1199028555
2	3679947	174	2338.040566828
2	3691524	175	2337.9623770215
2	3704256	176	2337.8836968618
2	3720345	177	2337.8045443184
2	3734754	178	2337.7256120161
2	3745701	179	2337.6473156776
2	3760885	180	2337.5682296212
2	3777216	181	2337.4888853909
2	3786126	182	2337.4110628097
2	3799576	183	2337.3322957719
2	3812138	184	2337.2539229965
2	3828940	185	2337.1745749948
2	3842690	186	2337.0958183999
2	3857971	187	2337.0167481393
2	3870743	188	2336.9382658935
2	3883267	189	2336.8596719801
2	3898721	190	2336.7806313792
2	3911118	191	2336.7021381533
2	3925480	192	2336.6233313109
2	3939730	193	2336.5445148083
2	3957620	194	2336.4647850208
2	3972790	195	2336.3858392234
2	3986580	196	2336.3070619545
2	4001606	197	2336.2281682079
2	4015397	198	2336.1494922102
2	4026937	199	2336.0712354618
2	4037025	200	2335.9930428791
2	4053704	201	2335.9079884974
2	4067984	202	2335.8292283441
2	4082807	203	2335.7501882355
2	4094941	204	2335.6717767863
2	4108614	205	2335.5929893247
2	4119305	206	2335.5148346815
2	4133683	207	2335.4359774869
2	4153015	208	2335.3562218858
2	4163104	209	2335.2780981213
2	4177287	210	2335.199372308
2	4190328	211	2335.1206278414
2	4203825	212	2335.0418765579
2	4213787	213	2334.9636968574
2	4223828	214	2334.8856213397
2	4234162	215	2334.807512272
2	4245207	216	2334.7292018232
2	4258065	217	2334.6506669239
2	4265455	218	2334.5730565031
2	4279938	219	2334.4941745638
2	4291476	220	2334.4156704153
2	4308609	221	2334.3363060916
2	4324197	222	2334.2571821479
2	4335141	223	2334.1789688977
2	4343850	224	2334.1010861102
2	4355783	225	2334.0226879894
2	4366032	226	2333.9445482391
2	4375292	227	2333.8665364845
2	4389090	228	2333.7877119593
2	4399059	229	2333.7096801584
2	4406466	230	2333.6321444872
2	4419021	231	2333.5535359939
2	4433847	232	2333.4747019069
2	4444578	233	2333.3965302293
2	4457771	234	2333.3177647939
2	4468636	235	2333.2395679016
2	4483681	236	2333.160803872
2	4495016	237	2333.0824824006
2	4505407	238	2333.0045292129
2	4515409	239	2332.9265931435
2	4532340	240	2332.8472353549
2	4544922	241	2332.7687873741
2	4558421	242	2332.6900202736
2	4564580	243	2332.6126268754
2	4574579	244	2332.5344942267
2	4585964	245	2332.4562628967
2	4603113	246	2332.3767720167
2	4615981	247	2332.2981358468
2	4623671	248	2332.2205083201
2	4631283	249	2332.1429869758
2	4642663	250	2332.064779808
2	4650986	251	2331.9870554401
2	4662012	252	2331.9088422225
2	4670856	253	2331.8310456949
2	4679193	254	2331.7533057219
2	4691098	255	2331.6748889755
2	4703896	256	2331.5963249928
2	4712015	257	2331.5185115943
2	4724057	258	2331.4401141083
2	4735116	259	2331.3617850857
2	4745450	260	2331.2836063229
2	4756955	261	2331.2052574748
2	4765716	262	2331.1273823334
2	4772380	263	2331.0499676885
2	4781937	264	2330.9721525124
2	4790409	265	2330.8943870103
2	4800538	266	2330.816388503
2	4806659	267	2330.7389846382
2	4816301	268	2330.6610711178
2	4824773	269	2330.5834061147
2	4832308	270	2330.5058349536
2	4839613	271	2330.4282807418
2	4850750	272	2330.3489007889
2	4863105	273	2330.2655492325
2	4877932	274	2330.1866048508
2	4881398	275	2330.1097476921
2	4892452	276	2330.0313570912
2	4897520	277	2329.95425161
2	4902657	278	2329.8771162937
2	4910622	279	2329.799458855
2	4915660	280	2329.72229714
2	4920824	281	2329.6451517307
2	4931734	282	2329.5669363598
2	4941621	283	2329.4889885145
2	4950582	284	2329.4110910845
2	4958402	285	2329.3334536499
2	4964574	286	2329.2560955484
2	4975223	287	2329.177842422
2	4981941	288	2329.1004526292
2	4991845	289	2329.0225000739
2	5001886	290	2328.944383119
2	5012909	291	2328.8660043037
2	5018036	292	2328.7887728033
2	5025801	293	2328.7111968783
2	5035222	294	2328.6332412991
2	5042435	295	2328.5557919844
2	5051243	296	2328.4779897167
2	5060774	297	2328.3999044439
2	5067799	298	2328.3224002636
2	5074890	299	2328.2448299126
2	5079943	300	2328.1676722677
2	5087473	301	2328.090141223
2	5096398	302	2328.0123182346
2	5107370	303	2327.9341614243
2	5113374	304	2327.8568702572
2	5122761	305	2327.7789473681
2	5128018	306	2327.7017056608
2	5135604	307	2327.6241064125
2	5142031	308	2327.5467195635
2	5149306	309	2327.4691375942
2	5156297	310	2327.3915638442
2	5161187	311	2327.3145195
2	5172551	312	2327.2360680242
2	5187317	313	2327.157284735
2	5195445	314	2327.0796151843
2	5202843	315	2327.002072946
2	5208945	316	2326.9246875325
2	5215300	317	2326.8472837567
2	5220169	318	2326.7702177493
2	5232035	319	2326.6917870588
2	5243969	320	2326.6134087295
2	5251333	321	2326.5358301929
2	5258729	322	2326.4581029963
2	5267601	323	2326.380224913
2	5281872	324	2326.3014183971
2	5284838	325	2326.2245929285
2	5292875	326	2326.1469053392
2	5303066	327	2326.0688765931
2	5308501	328	2325.9916508329
2	5314464	329	2325.9144115673
2	5322729	330	2325.836607971
2	5329283	331	2325.7592293612
2	5339827	332	2325.6810853975
2	5348492	333	2325.6032720967
2	5357986	334	2325.5253905672
2	5366940	335	2325.4475748493
2	5373458	336	2325.3702407978
2	5379957	337	2325.2927492724
2	5390097	338	2325.214760158
2	5397787	339	2325.1370059037
2	5404630	340	2325.059510878
2	5411276	341	2324.9820581472
2	5417643	342	2324.9046431623
2	5429153	343	2324.8261862473
2	5440584	344	2324.7479179729
2	5448821	345	2324.6702325871
2	5459075	346	2324.5921227962
2	5475563	347	2324.5075124183
2	5483406	348	2324.4292625967
2	5494329	349	2324.3510896677
2	5503014	350	2324.2733023141
2	5509104	351	2324.1959128332
2	5518275	352	2324.118007532
2	5522145	353	2324.0410508826
2	5529245	354	2323.9633712568
2	5534846	355	2323.8861372773
2	5542131	356	2323.8086015229
2	5548803	357	2323.7311832571
2	5554545	358	2323.653950341
2	5559343	359	2323.5768378587
2	5566430	360	2323.4992315033
2	5574994	361	2323.421460088
2	5585791	362	2323.3431539047
2	5594907	363	2323.265232165
2	5601726	364	2323.1876748536
2	5609293	365	2323.1100040978
2	5621148	366	2323.0316199655
2	5632358	367	2322.9533220276
2	5641768	368	2322.8753398169
2	5650850	369	2322.7974441491
2	5653625	370	2322.720711606
2	5660046	371	2322.6431511784
2	5667128	372	2322.5656167333
2	5674233	373	2322.4881209285
2	5685852	374	2322.4097834537
2	5692620	375	2322.3323545731
2	5698985	376	2322.2548914293
2	5703625	377	2322.1778610342
2	5712245	378	2322.1000278735
2	5720592	379	2322.0222484113
2	5730811	380	2321.9442152143
2	5737617	381	2321.866843503
2	5752208	382	2321.7881309093
2	5762998	383	2321.7099291826
2	5771956	384	2321.6320236177
2	5783653	385	2321.5536783027
2	5792342	386	2321.4758300196
2	5802879	387	2321.3977050407
2	5813189	388	2321.3196345402
2	5816797	389	2321.2427334536
2	5823563	390	2321.1653202167
2	5828399	391	2321.08808739
2	5836780	392	2321.0104590359
2	5848330	393	2320.9322076147
2	5855234	394	2320.8546911424
2	5864692	395	2320.7767437792
2	5875724	396	2320.6985632028
2	5885787	397	2320.6203066641
2	5892743	398	2320.5427836014
2	5899812	399	2320.4653206224
2	5909770	400	2320.3872764769
2	5915589	401	2320.3100162854
2	5926152	402	2320.2319107682
2	5936148	403	2320.1538872785
2	5946021	404	2320.0757503766
2	5956526	405	2319.9976476474
2	5965340	406	2319.9198142693
2	5971887	407	2319.8423863082
2	5978304	408	2319.7648596175
2	5984264	409	2319.6875854162
2	5987535	410	2319.6107510928
2	5996767	411	2319.5327977556
2	6008753	412	2319.4545653646
2	6017095	413	2319.3768582448
2	6022467	414	2319.2996242653
2	6027872	415	2319.2223985816
2	6034875	416	2319.1448703875
2	6039801	417	2319.067678804
2	6050609	418	2318.9894584004
2	6061747	419	2318.9112615772
2	6074889	420	2318.8279625484
2	6083682	421	2318.7489123779
2	6092904	422	2318.6711005618
2	6102312	423	2318.5931540688
2	6111288	424	2318.5153417233
2	6120535	425	2318.4374177584
2	6126015	426	2318.3602567928
2	6134408	427	2318.2825267884
2	6148760	428	2318.1994595503
2	6160431	429	2318.119414953
2	6173463	430	2318.0408322951
2	6179522	431	2317.9635189178
2	6189383	432	2317.8854978084
2	6196708	433	2317.8079443284
2	6203887	434	2317.7303255207
2	6210730	435	2317.652846744
2	6220630	436	2317.5748627259
2	6225096	437	2317.4978146033
2	6229012	438	2317.4209126418
2	6237886	439	2317.3431637081
2	6244658	440	2317.2656795804
2	6250689	441	2317.188291152
2	6258230	442	2317.1107259366
2	6266507	443	2317.0330695093
2	6276503	444	2316.9549160486
2	6282658	445	2316.8774717028
2	6291633	446	2316.7996545761
2	6298914	447	2316.7220688485
2	6311485	448	2316.6436368232
2	6316548	449	2316.5665560349
2	6325813	450	2316.4886572181
2	6333152	451	2316.4082709075
2	6348547	452	2316.3292991537
2	6352303	453	2316.2524265927
2	6359436	454	2316.1748431048
2	6365009	455	2316.0976188632
2	6375865	456	2316.0195149459
2	6383876	457	2315.9418244919
2	6392393	458	2315.8640387862
2	6400348	459	2315.7862932708
2	6407739	460	2315.7087277402
2	6418403	461	2315.6304935416
2	6428153	462	2315.552474789
2	6433637	463	2315.4752793648
2	6444127	464	2315.3970750584
2	6452212	465	2315.3194441636
2	6461097	466	2315.2414990166
2	6468764	467	2315.1639038261
2	6473455	468	2315.0868852729
2	6480959	469	2315.0092986712
2	6487489	470	2314.9318712299
2	6492842	471	2314.8546485043
2	6501310	472	2314.7768097482
2	6507087	473	2314.6995413271
2	6512567	474	2314.6223155669
2	6520025	475	2314.5445719317
2	6525394	476	2314.4674066183
2	6532634	477	2314.3898905392
2	6539982	478	2314.3123082051
2	6549763	479	2314.2342688841
2	6557495	480	2314.1566940104
2	6564990	481	2314.0791520668
2	6571710	482	2314.001786968
2	6579236	483	2313.9243412733
2	6586467	484	2313.8467025085
2	6596791	485	2313.7686169592
2	6605391	486	2313.6908686714
2	6610849	487	2313.6136219548
2	6617911	488	2313.5361304919
2	6632743	489	2313.4528313521
2	6640197	490	2313.3753068124
2	6644738	491	2313.2982532464
2	6653526	492	2313.2204980627
2	6661794	493	2313.1428239685
2	6667395	494	2313.065589989
2	6674382	495	2312.9880693934
2	6682360	496	2312.9103421968
2	6688145	497	2312.8329841983
2	6691474	498	2312.756135545
2	6699969	499	2312.6784383454
2	6707992	500	2312.6007349571
2	6712068	501	2312.5237552557
2	6719542	502	2312.4461631371
2	6724743	503	2312.3690592644
2	6729047	504	2312.2919833081
2	6737318	505	2312.2142520018
2	6741295	506	2312.1372887644
2	6747547	507	2312.0598815818
2	6755464	508	2311.9821604399
2	6762114	509	2311.9046612007
2	6768451	510	2311.8271872728
2	6772353	511	2311.750201461
2	6781822	512	2311.6723043792
2	6786096	513	2311.595325458
2	6791545	514	2311.5180391826
2	6798800	515	2311.4405277288
2	6806355	516	2311.362933754
2	6811887	517	2311.2856555127
2	6814269	518	2311.2089555155
2	6818977	519	2311.1318873115
2	6829723	520	2311.053699242
2	6837292	521	2310.9761272622
2	6846116	522	2310.8984014879
2	6853770	523	2310.8207333965
2	6859057	524	2310.7435644559
2	6864684	525	2310.6663910732
2	6870547	526	2310.5890440138
2	6877198	527	2310.5115997337
2	6882313	528	2310.4344278055
2	6889026	529	2310.3569873472
2	6895092	530	2310.2796217259
2	6899138	531	2310.2026810541
2	6902204	532	2310.1258952483
2	6909144	533	2310.0484468199
2	6914272	534	2309.9712320706
2	6920162	535	2309.893968371
2	6926848	536	2309.8166218523
2	6934006	537	2309.7391634781
2	6940708	538	2309.6616914891
2	6944559	539	2309.5847813083
2	6951840	540	2309.5072231274
2	6956752	541	2309.4301754717
2	6965337	542	2309.3523463229
2	6970718	543	2309.2751813102
2	6978968	544	2309.1974665028
2	6987363	545	2309.1197417624
2	6991161	546	2309.0428504991
2	6999466	547	2308.96522088
2	7008284	548	2308.8874950992
2	7012560	549	2308.8105435865
2	7022012	550	2308.7325687613
2	7026811	551	2308.6554845179
2	7034660	552	2308.5778136235
2	7049119	553	2308.4952519592
2	7060187	554	2308.4150413254
2	7063771	555	2308.338138897
2	7068542	556	2308.2610597641
2	7073773	557	2308.1838767866
2	7081621	558	2308.1062176556
2	7084813	559	2308.029362625
2	7090959	560	2307.952041902
2	7095369	561	2307.8749803294
2	7100189	562	2307.7978792247
2	7105930	563	2307.7206446828
2	7107617	564	2307.6440902442
2	7113598	565	2307.5668209813
2	7121162	566	2307.4892412807
2	7127899	567	2307.4117953477
2	7133093	568	2307.3346563744
2	7135709	569	2307.2579484891
2	7144525	570	2307.1801333325
2	7147445	571	2307.1033353028
2	7151320	572	2307.0263487281
2	7157931	573	2306.9489824081
2	7162837	574	2306.8718696135
2	7167882	575	2306.7947433385
2	7172396	576	2306.7176874635
2	7179346	577	2306.6401839967
2	7185047	578	2306.5629275774
2	7188309	579	2306.4861106248
2	7195147	580	2306.4086757603
2	7204292	581	2306.3309238467
2	7208166	582	2306.2540296376
2	7220479	583	2306.1669225017
2	7228727	584	2306.0877276798
2	7231695	585	2306.0109288452
2	7239205	586	2305.9332741332
2	7244166	587	2305.8562018196
2	7247698	588	2305.7793076105
2	7257077	589	2305.6965130115
2	7265503	590	2305.6179468295
2	7270238	591	2305.5407841119
2	7278854	592	2305.4630358453
2	7289793	593	2305.3849442204
2	7293639	594	2305.308033377
2	7298660	595	2305.2309528441
2	7302460	596	2305.1540576683
2	7309302	597	2305.0766382234
2	7315902	598	2304.9992552638
2	7322529	599	2304.9218206581
2	7328575	600	2304.8443619052
2	7331563	601	2304.7675390229
2	7335620	602	2304.6905186295
2	7342010	603	2304.6131870238
2	7349101	604	2304.5356629312
2	7354812	605	2304.4584557328
2	7364377	606	2304.3805834176
2	7369772	607	2304.30340161
2	7376596	608	2304.2258360793
2	7380816	609	2304.148862429
2	7386809	610	2304.0715115687
2	7393245	611	2303.9941831092
2	7400157	612	2303.916711064
2	7404203	613	2303.8398217501
2	7407532	614	2303.7629766552
2	7412153	615	2303.6859212471
2	7415994	616	2303.6089363359
2	7420504	617	2303.5318804609
2	7427234	618	2303.4543689368
2	7434977	619	2303.3767069309
2	7442287	620	2303.299178116
2	7448083	621	2303.221939989
2	7453646	622	2303.1447719581
2	7459645	623	2303.0675038151
2	7467921	624	2302.9897837905
2	7473230	625	2302.9126651435
2	7480975	626	2302.8350598943
2	7488391	627	2302.7574586275
2	7495392	628	2302.6800035203
2	7498701	629	2302.6031257498
2	7502290	630	2302.5262397601
2	7512908	631	2302.4456795821
2	7523891	632	2302.3638759303
2	7530372	633	2302.2864919076
2	7534311	634	2302.209526464
2	7540156	635	2302.1321390379
2	7549079	636	2302.0544049779
2	7553328	637	2301.9774299317
2	7560419	638	2301.9000061813
2	7562272	639	2301.8234225753
2	7566867	640	2301.7463359594
2	7572107	641	2301.6691010843
2	7577570	642	2301.5918926582
2	7581212	643	2301.5149984492
2	7583966	644	2301.4382269305
2	7588844	645	2301.3610483651
2	7592256	646	2301.2841923995
2	7595276	647	2301.2073832339
2	7598564	648	2301.1305520618
2	7602154	649	2301.053666072
2	7607420	650	2300.9764485311
2	7616187	651	2300.8987131152
2	7622226	652	2300.8213251913
2	7628677	653	2300.7439382629
2	7632679	654	2300.6668906072
2	7635929	655	2300.5900046175
2	7638658	656	2300.5132635898
2	7644281	657	2300.4359912355
2	7651881	658	2300.3584421199
2	7659842	659	2300.2807782448
2	7664346	660	2300.2037059312
2	7668743	661	2300.1266500562
2	7672216	662	2300.0497852809
2	7677125	663	2299.9726999721
2	7682500	664	2299.8954659926
2	7687206	665	2299.8184101176
2	7694870	666	2299.740792381
2	7701497	667	2299.6633698114
2	7708330	668	2299.5858962455
2	7716425	669	2299.5081822962
2	7723419	670	2299.4306316537
2	7728667	671	2299.3535091886
2	7733424	672	2299.2763064263
2	7740176	673	2299.1988960023
2	7747862	674	2299.1212915113
2	7752225	675	2299.0442872824
2	7755077	676	2298.9675306969
2	7762995	677	2298.8897908859
2	7766004	678	2298.8129984241
2	7768503	679	2298.7362905389
2	7775530	680	2298.6587762077
2	7782203	681	2298.5813546678
2	7787562	682	2298.5040524203
2	7793172	683	2298.4269037236
2	7803220	684	2298.3490257378
2	7809674	685	2298.2716155676
2	7815851	686	2298.1942534465
2	7821962	687	2298.1169834774
2	7827505	688	2298.0397412786
2	7831358	689	2297.9628094511
2	7836941	690	2297.885532128
2	7844276	691	2297.8080186831
2	7851141	692	2297.7305387021
2	7858221	693	2297.6530504533
2	7869033	694	2297.5705710242
2	7871528	695	2297.4938467004
2	7877464	696	2297.4166141459
2	7880605	697	2297.3398380802
2	7885055	698	2297.262726791
2	7891499	699	2297.1853342191
2	7893511	700	2297.1087203127
2	7902081	701	2297.0309450948
2	7904883	702	2296.9541941397
2	7910918	703	2296.8768531569
2	7914620	704	2296.7999518791
2	7921098	705	2296.7225261842
2	7924626	706	2296.6456555755
2	7931601	707	2296.5682146307
2	7935342	708	2296.491276398
2	7938653	709	2296.4143806027
2	7945283	710	2296.3370164564
2	7949931	711	2296.2599571331
2	7952756	712	2296.1832313607
2	7959350	713	2296.1057932847
2	7967263	714	2296.0281368046
2	7970786	715	2295.9512716208
2	7978850	716	2295.8735851043
2	7985660	717	2295.7961343873
2	7996211	718	2295.7180400357
2	8001049	719	2295.6409589297
2	8013120	720	2295.5625852681
2	8017326	721	2295.4856267698
2	8021383	722	2295.4085887918
2	8023014	723	2295.3320425725
2	8027994	724	2295.2548168122
2	8031028	725	2295.1780596837
2	8039010	726	2295.1004584473
2	8045923	727	2295.022958941
2	8053900	728	2294.9453833621
2	8065952	729	2294.8611873972
2	8072180	730	2294.7839238644
2	8079698	731	2294.7063096334
2	8085576	732	2294.6290056026
2	8087440	733	2294.5524335547
2	8094509	734	2294.4749291358
2	8100367	735	2294.3975270412
2	8105747	736	2294.3203095003
2	8112387	737	2294.2428622107
2	8116002	738	2294.1659947922
2	8120474	739	2294.0889433754
2	8126783	740	2294.011507616
2	8129505	741	2293.9347985201
2	8136177	742	2293.8573741472
2	8140275	743	2293.780369388
2	8144341	744	2293.7033821584
2	8152375	745	2293.62240872
2	8159933	746	2293.5424180777
2	8164304	747	2293.4654227452
2	8173846	748	2293.3873968969
2	8177884	749	2293.3104612897
2	8185306	750	2293.2328705385
2	8189217	751	2293.1559440677
2	8193402	752	2293.0789427179
2	8199291	753	2293.0015857403
2	8205191	754	2292.9243625218
2	8210832	755	2292.8471492915
2	8216917	756	2292.7698306911
2	8220685	757	2292.6928385795
2	8227315	758	2292.615420743
2	8232983	759	2292.5381978429
2	8239460	760	2292.4608279116
2	8245983	761	2292.3834240468
2	8250117	762	2292.306464753
2	8258016	763	2292.2288004384
2	8263394	764	2292.1516570152
2	8272152	765	2292.0739736075
2	8276058	766	2291.9970169581
2	8292954	767	2291.9119656988
2	8300796	768	2291.8344479865
2	8306253	769	2291.7571750274
2	8315298	770	2291.6793086226
2	8318465	771	2291.60245385
2	8324074	772	2291.5252256357
2	8330597	773	2291.4478902753
2	8333150	774	2291.3712106213
2	8341027	775	2291.2935494676
2	8344899	776	2291.2166259478
2	8352365	777	2291.1390935271
2	8359456	778	2291.0615620924
2	8369835	779	2290.9819618994
2	8378758	780	2290.8998829605
2	8383550	781	2290.8228318519
2	8390024	782	2290.7454776609
2	8395012	783	2290.6684237228
2	8401595	784	2290.5910187616
2	8408950	785	2290.51342005
2	8412831	786	2290.436421086
2	8417338	787	2290.3593487724
2	8424385	788	2290.2817813124
2	8431796	789	2290.2041851652
2	8436276	790	2290.1271453975
2	8441263	791	2290.0499842583
2	8447126	792	2289.9726664356
2	8454489	793	2289.8950758631
2	8457956	794	2289.81821697
2	8464099	795	2289.7408192698
2	8468608	796	2289.6637633948
2	8475523	797	2289.5863047124
2	8481606	798	2289.5089803232
2	8485937	799	2289.4318762499
2	8490286	800	2289.3548685732
2	8494947	801	2289.2777722924
2	8498971	802	2289.2007732619
2	8503934	803	2289.1236009172
2	8511045	804	2289.0461600755
2	8517476	805	2288.9687977751
2	8523701	806	2288.8913770039
2	8527649	807	2288.8143809263
2	8530005	808	2288.7376818459
2	8536495	809	2288.6602626027
2	8541791	810	2288.5830082766
2	8547507	811	2288.5057742971
2	8552606	812	2288.4286083723
2	8557349	813	2288.3514836425
2	8563785	814	2288.2740415343
2	8567860	815	2288.1971988089
2	8576284	816	2288.1194499002
2	8583442	817	2288.0420666158
2	8588863	818	2287.9648426511
2	8597062	819	2287.8871072352
2	8602439	820	2287.8098896943
2	8607062	821	2287.7328976177
2	8611632	822	2287.655849343
2	8618062	823	2287.5784938361
2	8621412	824	2287.5016165829
2	8628346	825	2287.4241074284
2	8637267	826	2287.3463407868
2	8642250	827	2287.2692084273
2	8649083	828	2287.1917006268
2	8653877	829	2287.1146122132
2	8661335	830	2287.0370620486
2	8668125	831	2286.9597374905
2	8674606	832	2286.882367275
2	8682106	833	2286.8047853057
2	8685718	834	2286.7279539786
2	8693500	835	2286.6503600123
2	8695133	836	2286.573813793
2	8697687	837	2286.4970976884
2	8707329	838	2286.419227563
2	8711582	839	2286.3422257314
2	8717895	840	2286.2648576819
2	8722194	841	2286.1877508032
2	8726481	842	2286.1107768156
2	8735778	843	2286.0329247636
2	8738859	844	2285.9561439292
2	8743851	845	2285.8789341407
2	8752557	846	2285.8011497745
2	8760010	847	2285.7236132919
2	8767102	848	2285.6461250542
2	8779947	849	2285.5617465045
2	8784651	850	2285.4846574065
2	8791240	851	2285.4073089934
2	8799206	852	2285.3296019349
2	8804463	853	2285.2524277426
2	8809452	854	2285.1752522458
2	8813904	855	2285.0981881516
2	8819603	856	2285.0209861756
2	8824910	857	2284.94378815
2	8832721	858	2284.8661647908
2	8838788	859	2284.7888981624
2	8844516	860	2284.7116698975
2	8852504	861	2284.6340741281
2	8862163	862	2284.5561200816
2	8868768	863	2284.478616208
2	8876766	864	2284.4008949742
2	8884516	865	2284.3233635921
2	8889624	866	2284.2461986641
2	8893391	867	2284.1692923205
2	8899879	868	2284.0919439968
2	8903676	869	2284.0149867521
2	8908845	870	2283.9378240275
2	8913380	871	2283.8607273874
2	8919684	872	2283.783430128
2	8925528	873	2283.7061171107
2	8936951	874	2283.6278533921
2	8943989	875	2283.5504436518
2	8946560	876	2283.473766087
2	8953491	877	2283.3962932793
2	8959385	878	2283.3190177322
2	8967056	879	2283.2413076213
2	8971957	880	2283.1641174411
2	8979881	881	2283.0864085506
2	8985125	882	2283.0092549908
2	8991832	883	2282.9318447417
2	9001655	884	2282.8539790925
2	9009105	885	2282.7764051669
2	9017071	886	2282.6987734639
2	9024403	887	2282.6212217633
2	9031186	888	2282.5438418688
2	9037600	889	2282.4664900843
2	9042006	890	2282.3894637732
2	9046856	891	2282.3123530266
2	9048749	892	2282.2357596124
2	9053067	893	2282.1587411797
2	9061379	894	2282.0809893252
2	9064515	895	2282.004208498
2	9068381	896	2281.9272832442
2	9074564	897	2281.8499298968
2	9080878	898	2281.7725495867
2	9086265	899	2281.6953910555
2	9091629	900	2281.6181901678
2	9100273	901	2281.5404159957
2	9104164	902	2281.4634396528
2	9109141	903	2281.3863725956
2	9115845	904	2281.3088990297
2	9124619	905	2281.2311228594
2	9132233	906	2281.1535718297
2	9138542	907	2281.0763535193
2	9143735	908	2280.9992198237
2	9150899	909	2280.921654293
2	9158343	910	2280.844040062
2	9161479	911	2280.767254476
2	9165902	912	2280.6901963448
2	9172779	913	2280.61274508
2	9177161	914	2280.5357356483
2	9183750	915	2280.4583400029
2	9188482	916	2280.3812676893
2	9201636	917	2280.2983033159
2	9212070	918	2280.2139498085
2	9217332	919	2280.1367867928
2	9222236	920	2280.0596627373
2	9226635	921	2279.9826658291
2	9233793	922	2279.9051436502
2	9238404	923	2279.828068226
2	9241796	924	2279.7512705922
2	9246083	925	2279.6742523642
2	9249777	926	2279.5973122889
2	9258471	927	2279.5195410709
2	9264982	928	2279.4421511254
2	9272590	929	2279.3645565819
2	9276544	930	2279.2876329452
2	9283202	931	2279.2100669477
2	9286905	932	2279.1331809579
2	9294550	933	2279.0555446405
2	9300141	934	2278.9782280011
2	9304312	935	2278.9011721261
2	9313136	936	2278.8234367102
2	9316900	937	2278.7465589397
2	9320320	938	2278.6696811693
2	9323767	939	2278.5928314999
2	9330404	940	2278.5153507847
2	9336510	941	2278.4380203272
2	9339546	942	2278.3612146938
2	9345299	943	2278.2838921387
2	9349149	944	2278.2069049982
2	9357133	945	2278.1291623103
2	9362529	946	2278.0518833069
2	9366759	947	2277.9748356512
2	9373918	948	2277.8972536819
2	9376525	949	2277.8205293581
2	9382586	950	2277.7433118171
2	9386062	951	2277.6664258274
2	9388676	952	2277.5897179422
2	9394339	953	2277.5124921819
2	9397417	954	2277.4356907688
2	9402125	955	2277.3585585365
2	9410785	956	2277.28077068
2	9414385	957	2277.2039260622
2	9420957	958	2277.1265382797
2	9427587	959	2277.0490495946
2	9431762	960	2276.9720725986
2	9435762	961	2276.8951461278
2	9440221	962	2276.8181380795
2	9444308	963	2276.7411509626
2	9451727	964	2276.6637096987
2	9456309	965	2276.5867195265
2	9458864	966	2276.5100034219
2	9464299	967	2276.4327776617
2	9468027	968	2276.3558819985
2	9473440	969	2276.2785656195
2	9477488	970	2276.2016488888
2	9480213	971	2276.1249245649
2	9486605	972	2276.0476000207
2	9493199	973	2275.9702043753
2	9496560	974	2275.8933183855
2	9500954	975	2275.8162625105
2	9503171	976	2275.7396316722
2	9507570	977	2275.6625757972
2	9511322	978	2275.5856995749
2	9515801	979	2275.5086283248
2	9523789	980	2275.4309484527
2	9525808	981	2275.3543402752
2	9531797	982	2275.2771065323
2	9537452	983	2275.1998431251
2	9541839	984	2275.1227888381
2	9545643	985	2275.0458990659
2	9550703	986	2274.9687440901
2	9555567	987	2274.891627127
2	9563199	988	2274.8139617824
2	9568648	989	2274.7367630104
2	9573411	990	2274.6596696584
2	9576866	991	2274.5828158596
2	9580426	992	2274.5059635691