version 2
run General-0-20140630-02:14:31-28697
attr configname General
attr datetime 20140630-02:14:31
attr experiment General
attr inifile omnetpp.ini
attr iterationvars ""
attr iterationvars2 $repetition=0
attr measurement ""
attr network WSN
attr processid 28697
attr repetition 0
attr replication #0
attr resultdir results
attr runnumber 0
attr seedset 0

vector 3  WSN.statistic  sensorEnergy:vector  ETV
attr title  "Sensor energy, vector"
vector 4  WSN.statistic  sensorEnergyLevel:vector  ETV
attr title  "Sensor energy (level), vector"
3	16575449	3540	3.1660022789845
3	16575449	3540	3.1652161390742
3	16575449	3540	3.1645083009028
3	16575449	3540	3.1645132229448
3	16575449	3540	3.1744574873993
3	16575449	3540	3.1736015133433
3	16575449	3540	3.1732041916937
3	16575449	3540	3.1589554095575
3	16575449	3540	3.1487302220624
3	16575449	3540	3.1481683800127
3	16575449	3540	3.1489360072015
3	16575449	3540	3.158877489821
3	16575449	3540	3.1656162246337
3	16575449	3540	3.1652647684229
3	16575449	3540	3.1631030146934
3	16575449	3540	3.164662701089
3	16575449	3540	3.1592163975292
3	16575449	3540	3.158340825625
3	16575449	3540	3.1583428050752
3	16575449	3540	3.1524903625106
3	16575449	3540	3.1490358620107
3	16575449	3540	3.1491104549609
3	16575449	3540	3.1496451238508
3	16575449	3540	3.15051325782
3	16575449	3540	3.1634758296659
3	16575449	3540	3.1587835830442
3	16575449	3540	3.1504974359336
3	16575449	3540	3.1495088447478
3	16575449	3540	3.1400780814867
3	16575449	3540	3.1496640465284
3	16575449	3540	3.1353295330428
3	16575449	3540	3.1490048649273
3	16575449	3540	3.1497159997241
3	16575449	3540	3.1497494249638
3	16575449	3540	3.1498650459701
3	16575449	3540	3.1509458031204
3	16575449	3540	3.1588702162946
3	16575449	3540	3.1499789393834
3	16575449	3540	3.1504576334311
3	16575449	3540	3.1401494007034
3	16575449	3540	3.1479785768312
3	16575449	3540	3.1473882251783
3	16575449	3540	3.1492889509276
3	16575449	3540	3.1357807053797
3	16575449	3540	3.1402826539924
3	16575449	3540	3.1411313014523
3	16575449	3540	3.1488332927143
3	16575449	3540	3.1582696868716
3	16575449	3540	3.1631314274834
3	16575449	3540	3.1506705995833
3	16575449	3540	3.1454808962831
3	16575449	3540	3.1477133204336
3	16575449	3540	3.1573842881449
3	16575449	3540	3.1466142832984
3	16575449	3540	3.1494600392342
3	16575449	3540	3.1453516673875
3	16575449	3540	3.1573108265211
3	16575449	3540	3.1426262787444
3	16575449	3540	3.1502929458262
3	16575449	3540	3.1516312645457
3	16575449	3540	3.1631050281688
3	16575449	3540	3.1528743909528
3	16575449	3540	3.1489576569426
3	16575449	3540	3.1470935204939
3	16575449	3540	3.1630997475042
3	16575449	3540	3.1536448071044
3	16575449	3540	3.150167356867
3	16575449	3540	3.14940143017
3	16575449	3540	3.1590458589159
3	16575449	3540	3.1486489826282
3	16575449	3540	3.1448387997202
3	16575449	3540	3.1504641278731
3	16575449	3540	3.1631736679616
3	16575449	3540	3.1530938266039
3	16575449	3540	3.1498874845033
3	16575449	3540	3.1506504576555
3	16575449	3540	3.1628938277749
3	16575449	3540	3.1555077865806
3	16575449	3540	3.1491760250072
3	16575449	3540	3.1492496698245
3	16575449	3540	3.1590974590538
3	16575449	3540	3.1488563653164
3	16575449	3540	3.1443802281275
3	16575449	3540	3.149461381265
3	16575449	3540	3.1630944669461
3	16575449	3540	3.1533268824127
3	16575449	3540	3.1505742139046
3	16575449	3540	3.1514355200995
3	16575449	3540	3.1631103073082
3	16575449	3540	3.1558453886826
3	16575449	3540	3.1496412243565
3	16575449	3540	3.1494459149575
3	16575449	3540	3.1591285401042
3	16575449	3540	3.148785627615
3	16575449	3540	3.1476705301155
3	16575449	3540	3.1489086857147
3	16575449	3540	3.162904388204
3	16575449	3540	3.1530335069122
3	16575449	3540	3.1523612897622
3	16575449	3540	3.1519348768765
3	16575449	3540	3.1631419884852
3	16575449	3540	3.1551139863091
3	16575449	3540	3.1513478158497
3	16575449	3540	3.1504054477073
3	16575449	3540	3.159154339847
3	16575449	3540	3.156459193103
3	16575449	3540	3.1487386489536
3	16575449	3540	3.1491539136681
3	16575449	3540	3.163194789137
3	16575449	3540	3.1523696271259
3	16575449	3540	3.1522850431751
3	16575449	3540	3.1526886650689
3	16575449	3540	3.163052228338
3	16575449	3540	3.1731995852636
3	16575449	3540	3.1505812885485
3	16575449	3540	3.1516459675501
3	16575449	3540	3.1591801403661
3	16575449	3540	3.1565130639032
3	16575449	3540	3.1493157287574
3	16575449	3540	3.1495282740547
3	16575449	3540	3.1631947886213
3	16575449	3540	3.1534625509496
3	16575449	3540	3.1533464810176
3	16575449	3540	3.1526263330176
3	16575449	3540	3.1630047061065
3	16575449	3540	3.1729842406012
3	16575449	3540	3.1513464559961
3	16575449	3540	3.1519246718189
3	16575449	3540	3.1592112205947
3	16575449	3540	3.1500115365536
3	16575449	3540	3.1500238273564
3	16575449	3540	3.1496497965575
3	16575449	3540	3.1630786273932
3	16575449	3540	3.2633568625994
3	16575449	3540	3.1537640279484
3	16575449	3540	3.1539013557991
3	16575449	3540	3.1606881952639
3	16575449	3540	3.2207729234391
3	16575449	3540	3.1523136918904
3	16575449	3540	3.1522781719463
3	16575449	3540	3.1592112205944
3	16575449	3540	3.1623706290906
3	16575449	3540	3.1506566520153
3	16575449	3540	3.1540054635444
4	16575449	3540	35
4	16575449	3540	35
4	16575449	3540	35
4	16575449	3540	35
4	16575449	3540	35
4	16575449	3540	35
4	16575449	3540	35
4	16575449	3540	35
4	16575449	3540	34
4	16575449	3540	34
4	16575449	3540	34
4	16575449	3540	35
4	16575449	3540	35
4	16575449	3540	35
4	16575449	3540	35
4	16575449	3540	35
4	16575449	3540	35
4	16575449	3540	35
4	16575449	3540	35
4	16575449	3540	35
4	16575449	3540	34
4	16575449	3540	34
4	16575449	3540	34
4	16575449	3540	35
4	16575449	3540	35
4	16575449	3540	35
4	16575449	3540	35
4	16575449	3540	34
4	16575449	3540	34
4	16575449	3540	34
4	16575449	3540	34
4	16575449	3540	34
4	16575449	3540	34
4	16575449	3540	34
4	16575449	3540	34
4	16575449	3540	35
4	16575449	3540	35
4	16575449	3540	34
4	16575449	3540	35
4	16575449	3540	34
4	16575449	3540	34
4	16575449	3540	34
4	16575449	3540	34
4	16575449	3540	34
4	16575449	3540	34
4	16575449	3540	34
4	16575449	3540	34
4	16575449	3540	35
4	16575449	3540	35
4	16575449	3540	35
4	16575449	3540	34
4	16575449	3540	34
4	16575449	3540	35
4	16575449	3540	34
4	16575449	3540	34
4	16575449	3540	34
4	16575449	3540	35
4	16575449	3540	34
4	16575449	3540	35
4	16575449	3540	35
4	16575449	3540	35
4	16575449	3540	35
4	16575449	3540	34
4	16575449	3540	34
4	16575449	3540	35
4	16575449	3540	35
4	16575449	3540	35
4	16575449	3540	34
4	16575449	3540	35
4	16575449	3540	34
4	16575449	3540	34
4	16575449	3540	35
4	16575449	3540	35
4	16575449	3540	35
4	16575449	3540	34
4	16575449	3540	35
4	16575449	3540	35
4	16575449	3540	35
4	16575449	3540	34
4	16575449	3540	34
4	16575449	3540	35
4	16575449	3540	34
4	16575449	3540	34
4	16575449	3540	34
4	16575449	3540	35
4	16575449	3540	35
4	16575449	3540	35
4	16575449	3540	35
4	16575449	3540	35
4	16575449	3540	35
4	16575449	3540	34
4	16575449	3540	34
4	16575449	3540	35
4	16575449	3540	34
4	16575449	3540	34
4	16575449	3540	34
4	16575449	3540	35
4	16575449	3540	35
4	16575449	3540	35
4	16575449	3540	35
4	16575449	3540	35
4	16575449	3540	35
4	16575449	3540	35
4	16575449	3540	35
4	16575449	3540	35
4	16575449	3540	35
4	16575449	3540	34
4	16575449	3540	34
4	16575449	3540	35
4	16575449	3540	35
4	16575449	3540	35
4	16575449	3540	35
4	16575449	3540	35
4	16575449	3540	35
4	16575449	3540	35
4	16575449	3540	35
4	16575449	3540	35
4	16575449	3540	35
4	16575449	3540	34
4	16575449	3540	34
4	16575449	3540	35
4	16575449	3540	35
4	16575449	3540	35
4	16575449	3540	35
4	16575449	3540	35
4	16575449	3540	35
4	16575449	3540	35
4	16575449	3540	35
4	16575449	3540	35
4	16575449	3540	35
4	16575449	3540	35
4	16575449	3540	34
4	16575449	3540	35
4	16575449	3540	36
4	16575449	3540	35
4	16575449	3540	35
4	16575449	3540	35
4	16575449	3540	35
4	16575449	3540	35
4	16575449	3540	35
4	16575449	3540	35
4	16575449	3540	35
4	16575449	3540	35
4	16575449	3540	35
