version 2
run General-0-20140524-16:57:03-11020
attr configname General
attr datetime 20140524-16:57:03
attr experiment General
attr inifile omnetpp.ini
attr iterationvars ""
attr iterationvars2 $repetition=0
attr measurement ""
attr network WSN
attr processid 11020
attr repetition 0
attr replication #0
attr resultdir results
attr runnumber 0
attr seedset 0

vector 2  WSN.statistic  networkEnergy:vector  ETV
attr title  "Node energy, vector"
vector 3  WSN.statistic  sensorEnergy:vector  ETV
attr title  "Sensor energy, vector"
vector 4  WSN.statistic  sensorEnergyLevel:vector  ETV
attr title  "Sensor energy (level), vector"
2	146	0	1296
2	428402	60	1281.7049618817
2	1086258	120	1267.3830499003
2	1746637	180	1253.0616508944
2	2398896	240	1238.7411633077
2	3073338	300	1224.4179872435
2	3723219	360	1210.0974750428
2	4396205	420	1195.7742251856
2	5058329	480	1181.453455103
2	5719611	540	1167.1322119329
2	6363898	600	1152.8127031707
2	6997619	660	1138.4941776107
2	7630924	720	1124.175892593
2	8292398	780	1109.8536355949
2	8949147	840	1095.5319111523
2	9587487	900	1081.2122960579
2	10248919	960	1066.8897320514
2	10910414	1020	1052.5680238337
2	11557064	1080	1038.2483411051
2	12218528	1140	1023.9262106395
2	12874177	1200	1009.6055662009
2	13526189	1260	995.28440915925
2	14156299	1320	980.96611689234
2	14807153	1380	966.6454872865
2	15456063	1440	952.32527970901
2	16106875	1500	938.00464465565
2	16773954	1560	923.68252486709
2	17431483	1620	909.36135895017
2	18096149	1680	895.03915363797
2	18744464	1740	880.71907932178
2	19425596	1800	866.39517717415
2	20074769	1860	852.07509595854
2	20736217	1920	837.75313365786
2	21399184	1980	823.43125112912
2	22058414	2040	809.10937505772
2	22715361	2100	794.78792303263
2	23379901	2160	780.46623098474
2	24009779	2220	766.14849907298
2	24650690	2280	751.82888042517
2	25322498	2340	737.50598175614
2	25985397	2400	723.18367915559
2	26632351	2460	708.86362909811
2	27283611	2520	694.54226408359
2	27940047	2580	680.22148230557
2	28602336	2640	665.8996581263
2	29249142	2700	651.57895717928
2	29915380	2760	637.25653107721
2	30563829	2820	622.93631172638
2	31222354	2880	608.61425548253
2	31882162	2940	594.29249072501
2	32526920	3000	579.97320034223
2	33165823	3060	565.65432993451
2	33816219	3120	551.33461570841
2	34456871	3180	537.01450942224
2	35105306	3240	522.69384398931
2	35761941	3300	508.3722693662
2	36413186	3360	494.0513562991
2	37062599	3420	479.73034179032
2	37712607	3480	465.41039126842
3	39053603	3600	3.0276361279247
3	39053603	3600	3.0124025502313
3	39053603	3600	3.0424053341257
3	39053603	3600	3.0152945424146
3	39053603	3600	3.0417583245147
3	39053603	3600	3.038016507876
3	39053603	3600	3.0339477763491
3	39053603	3600	3.0493717243337
3	39053603	3600	3.0125691371133
3	39053603	3600	3.0251535254076
3	39053603	3600	3.0421240844977
3	39053603	3600	3.0104174946706
3	39053603	3600	3.0102119717335
3	39053603	3600	3.0421815417656
3	39053603	3600	3.0419755817237
3	39053603	3600	3.0352545255675
3	39053603	3600	3.0428691166123
3	39053603	3600	3.0398168498165
3	39053603	3600	3.0386277036659
3	39053603	3600	3.05530710653
3	39053603	3600	3.0523168549922
3	39053603	3600	3.0336030247028
3	39053603	3600	3.039479005705
3	39053603	3600	3.0415577219039
3	39053603	3600	3.0284676402087
3	39053603	3600	3.0311578288667
3	39053603	3600	3.0292682523877
3	39053603	3600	3.0431005832632
3	39053603	3600	3.0520786075569
3	39053603	3600	3.0310575405326
3	39053603	3600	3.0550370216126
3	39053603	3600	3.0283351810157
3	39053603	3600	3.0435025761032
3	39053603	3600	3.0502103004152
3	39053603	3600	3.03021167181
3	39053603	3600	3.0324864437582
3	39053603	3600	3.0154137301172
3	39053603	3600	3.0410890990518
3	39053603	3600	3.0317740738366
3	39053603	3600	3.0328619235654
3	39053603	3600	3.0310394669506
3	39053603	3600	3.0502612506143
3	39053603	3600	3.0341251827617
3	39053603	3600	3.0433971613087
3	39053603	3600	3.0488121710051
3	39053603	3600	3.0286297449642
3	39053603	3600	3.0509200045526
3	39053603	3600	3.0030454910795
3	39053603	3600	3.0055211683212
3	39053603	3600	3.0456269371716
3	39053603	3600	3.0442352227759
3	39053603	3600	3.0205589926977
3	39053603	3600	3.0605342758673
3	39053603	3600	3.0305971500488
3	39053603	3600	3.0529284683869
3	39053603	3600	3.0244404995191
3	39053603	3600	3.0600153321695
3	39053603	3600	3.0314504679476
3	39053603	3600	3.0412387276301
3	39053603	3600	3.0417330348606
3	39053603	3600	3.0639967979787
3	39053603	3600	3.0463645501857
3	39053603	3600	3.0315776849302
3	39053603	3600	3.0345168305811
3	39053603	3600	3.0617359162956
3	39053603	3600	3.0264850640514
3	39053603	3600	3.0498837904515
3	39053603	3600	3.0224540099951
3	39053603	3600	3.0611013774177
3	39053603	3600	3.0385300859805
3	39053603	3600	3.0428447309753
3	39053603	3600	3.0276542382692
3	39053603	3600	3.0618712809775
3	39053603	3600	3.0182867790492
3	39053603	3600	3.038391449008
3	39053603	3600	3.0212182325167
3	39053603	3600	3.061735916296
3	39053603	3600	3.0141815288213
3	39053603	3600	3.0350983516618
3	39053603	3600	3.0320389833265
3	39053603	3600	3.0611013774174
3	39053603	3600	3.0354266724713
3	39053603	3600	3.0407502018086
3	39053603	3600	3.0216122825713
3	39053603	3600	3.061000859868
3	39053603	3600	3.0298799508343
3	39053603	3600	3.0231393573788
3	39053603	3600	3.0483108574022
3	39053603	3600	3.0641499191008
3	39053603	3600	3.0405607234071
3	39053603	3600	3.0482521269029
3	39053603	3600	3.0283128200845
3	39053603	3600	3.0622951322067
3	39053603	3600	3.019082827929
3	39053603	3600	3.0406319840047
3	39053603	3600	3.034080383031
3	39053603	3600	3.061000859868
3	39053603	3600	3.0212166780879
3	39053603	3600	3.044836389027
3	39053603	3600	3.018562327483
3	39053603	3600	3.0615115673105
3	39053603	3600	3.0109423820377
3	39053603	3600	3.0467474186743
3	39053603	3600	3.0324188946933
3	39053603	3600	3.0618248058282
3	39053603	3600	3.020894233679
3	39053603	3600	3.0460122517528
3	39053603	3600	3.0330072456888
3	39053603	3600	3.0610008598684
3	39053603	3600	3.0133546216915
3	39053603	3600	3.0322099829269
3	39053603	3600	3.0314456099758
3	39053603	3600	3.0599249475112
3	39053603	3600	3.0209919418813
3	39053603	3600	3.0340259848748
3	39053603	3600	3.0110833315543
3	39053603	3600	3.0618248058284
3	39053603	3600	3.0160306248123
3	39053603	3600	3.0443675086532
3	39053603	3600	3.0123495028703
3	39053603	3600	3.0639915189705
3	39053603	3600	3.029660507713
3	39053603	3600	3.0412108970875
3	39053603	3600	3.0406952894204
3	39053603	3600	3.0599249475111
3	39053603	3600	3.0297596084763
3	39053603	3600	3.0498474031727
3	39053603	3600	3.0347165379799
3	39053603	3600	3.0593509637177
3	39053603	3600	3.0331658265508
3	39053603	3600	3.0183706884746
3	39053603	3600	3.0265365802935
3	39053603	3600	3.0618209508462
3	39053603	3600	2.9952898301801
3	39053603	3600	3.0416153682067
3	39053603	3600	3.0159706881535
3	39053603	3600	3.0605004670955
3	39053603	3600	3.004319238724
3	39053603	3600	3.0376207299289
3	39053603	3600	3.008546155294
3	39053603	3600	3.0590451783867
3	39053603	3600	2.9987045233181
3	39053603	3600	3.024620889054
3	39053603	3600	3.0012682053088
4	39053603	3600	33
4	39053603	3600	33
4	39053603	3600	33
4	39053603	3600	33
4	39053603	3600	33
4	39053603	3600	33
4	39053603	3600	33
4	39053603	3600	33
4	39053603	3600	33
4	39053603	3600	33
4	39053603	3600	33
4	39053603	3600	33
4	39053603	3600	33
4	39053603	3600	33
4	39053603	3600	33
4	39053603	3600	33
4	39053603	3600	33
4	39053603	3600	33
4	39053603	3600	33
4	39053603	3600	33
4	39053603	3600	33
4	39053603	3600	33
4	39053603	3600	33
4	39053603	3600	33
4	39053603	3600	33
4	39053603	3600	33
4	39053603	3600	33
4	39053603	3600	33
4	39053603	3600	33
4	39053603	3600	33
4	39053603	3600	33
4	39053603	3600	33
4	39053603	3600	33
4	39053603	3600	33
4	39053603	3600	33
4	39053603	3600	33
4	39053603	3600	33
4	39053603	3600	33
4	39053603	3600	33
4	39053603	3600	33
4	39053603	3600	33
4	39053603	3600	33
4	39053603	3600	33
4	39053603	3600	33
4	39053603	3600	33
4	39053603	3600	33
4	39053603	3600	33
4	39053603	3600	33
4	39053603	3600	33
4	39053603	3600	33
4	39053603	3600	33
4	39053603	3600	33
4	39053603	3600	34
4	39053603	3600	33
4	39053603	3600	33
4	39053603	3600	33
4	39053603	3600	34
4	39053603	3600	33
4	39053603	3600	33
4	39053603	3600	33
4	39053603	3600	34
4	39053603	3600	33
4	39053603	3600	33
4	39053603	3600	33
4	39053603	3600	34
4	39053603	3600	33
4	39053603	3600	33
4	39053603	3600	33
4	39053603	3600	34
4	39053603	3600	33
4	39053603	3600	33
4	39053603	3600	33
4	39053603	3600	34
4	39053603	3600	33
4	39053603	3600	33
4	39053603	3600	33
4	39053603	3600	34
4	39053603	3600	33
4	39053603	3600	33
4	39053603	3600	33
4	39053603	3600	34
4	39053603	3600	33
4	39053603	3600	33
4	39053603	3600	33
4	39053603	3600	34
4	39053603	3600	33
4	39053603	3600	33
4	39053603	3600	33
4	39053603	3600	34
4	39053603	3600	33
4	39053603	3600	33
4	39053603	3600	33
4	39053603	3600	34
4	39053603	3600	33
4	39053603	3600	33
4	39053603	3600	33
4	39053603	3600	34
4	39053603	3600	33
4	39053603	3600	33
4	39053603	3600	33
4	39053603	3600	34
4	39053603	3600	33
4	39053603	3600	33
4	39053603	3600	33
4	39053603	3600	34
4	39053603	3600	33
4	39053603	3600	33
4	39053603	3600	33
4	39053603	3600	34
4	39053603	3600	33
4	39053603	3600	33
4	39053603	3600	33
4	39053603	3600	33
4	39053603	3600	33
4	39053603	3600	33
4	39053603	3600	33
4	39053603	3600	34
4	39053603	3600	33
4	39053603	3600	33
4	39053603	3600	33
4	39053603	3600	34
4	39053603	3600	33
4	39053603	3600	33
4	39053603	3600	33
4	39053603	3600	33
4	39053603	3600	33
4	39053603	3600	33
4	39053603	3600	33
4	39053603	3600	33
4	39053603	3600	33
4	39053603	3600	33
4	39053603	3600	33
4	39053603	3600	34
4	39053603	3600	33
4	39053603	3600	33
4	39053603	3600	33
4	39053603	3600	34
4	39053603	3600	33
4	39053603	3600	33
4	39053603	3600	33
4	39053603	3600	33
4	39053603	3600	33
4	39053603	3600	33
4	39053603	3600	33
