version 2
run General-0-20140519-09:49:00-5671
attr configname General
attr datetime 20140519-09:49:00
attr experiment General
attr inifile omnetpp.ini
attr iterationvars ""
attr iterationvars2 $repetition=0
attr measurement ""
attr network WSN
attr processid 5671
attr repetition 0
attr replication #0
attr resultdir results
attr runnumber 0
attr seedset 0

vector 2  WSN.statistic  networkEnergy:vector  ETV
attr title  "Node energy, vector"
vector 3  WSN.statistic  sensorEnergy:vector  ETV
attr title  "Sensor energy, vector"
2	198	0	2352
2	1578	1	2351.923462
2	3155	2	2351.846924
2	4820	3	2351.770386
2	7006	4	2351.693848
2	8595	5	2351.61731
2	10172	6	2351.540772
2	12844	7	2351.4640641148
2	15437	8	2351.3873562295
2	17632	9	2351.310670694
2	20837	10	2351.2337705739
2	26552	11	2351.156553033
2	28871	12	2351.0798451477
2	34323	13	2351.0025279028
2	41168	14	2350.9250886525
2	49372	15	2350.8472677617
2	55905	16	2350.7697729727
2	66736	17	2350.6915314062
2	78974	18	2350.6130960944
2	90282	19	2350.5346819001
2	103281	20	2350.4560285828
2	124050	21	2350.3759591817
2	134011	22	2350.2979476511
2	151385	23	2350.2184322238
2	175017	24	2350.1378090273
2	196142	25	2350.0578360439
2	218014	26	2349.977565672
2	243209	27	2349.896583004
2	276473	28	2349.8142012587
2	298892	29	2349.7337995147
2	329200	30	2349.6520225623
2	355509	31	2349.5707957924
2	394494	32	2349.4873616716
2	416979	33	2349.4070192948
2	453814	34	2349.3239861446
2	496322	35	2349.2397635645
2	517857	36	2349.1595429591
2	560215	37	2349.0753291328
2	594103	38	2348.99305405
2	636692	39	2348.9088481479
2	667734	40	2348.8268082345
2	708525	41	2348.7431236363
2	745535	42	2348.6600726088
2	788873	43	2348.5756868829
2	825802	44	2348.4927492419
2	867182	45	2348.4088824646
2	904806	46	2348.3255097815
2	945565	47	2348.2419020959
2	977095	48	2348.1598375515
2	1022792	49	2348.0749429505
2	1064389	50	2347.9910225949
2	1096301	51	2347.9090087149
2	1131869	52	2347.8261299604
2	1172867	53	2347.7422076021
2	1208413	54	2347.6592196575
2	1238816	55	2347.5775330349
2	1274515	56	2347.4945299577
2	1306420	57	2347.4123061919
2	1342723	58	2347.329407986
2	1369669	59	2347.2481153964
2	1405626	60	2347.1653068991
2	1439336	61	2347.0825941791
2	1473071	62	2347.00011357
2	1498857	63	2346.9191643347
2	1532370	64	2346.83673748
2	1561138	65	2346.7552479763
2	1588031	66	2346.67425569
2	1615392	67	2346.5928292432
2	1643711	68	2346.5112314053
2	1669687	69	2346.4303024725
2	1694871	70	2346.3494537915
2	1723207	71	2346.2679417073
2	1750689	72	2346.1865829486
2	1771828	73	2346.1064976889
2	1800962	74	2346.0249586542
2	1825658	75	2345.9440891669
2	1843307	76	2345.8645467229
2	1864446	77	2345.7843807494
2	1895184	78	2345.7025110145
2	1922787	79	2345.6211526803
2	1945553	80	2345.5407820373
2	1966952	81	2345.4606763423
2	2001628	82	2345.3778885195
2	2022614	83	2345.2976439984
2	2044567	84	2345.2173696727
2	2069019	85	2345.1367874298
2	2095890	86	2345.0555609299
2	2123205	87	2344.974299204
2	2149032	88	2344.893261478
2	2177560	89	2344.8115186037
2	2203901	90	2344.7303660327
2	2228443	91	2344.6498121684
2	2248402	92	2344.5699336238
2	2272849	93	2344.4892971496
2	2296725	94	2344.4085239711
2	2332939	95	2344.3200935466
2	2357556	96	2344.2389608001
2	2379954	97	2344.158675614
2	2399138	98	2344.0789447024
2	2423958	99	2343.9979995326
2	2453531	100	2343.9164232519
2	2473383	101	2343.8364586385
2	2496638	102	2343.7560755672
2	2524461	103	2343.674669652
2	2547687	104	2343.5941516441
2	2575718	105	2343.5128230541
2	2591115	106	2343.4338371955
2	2618072	107	2343.3525865579
2	2645078	108	2343.2699534704
2	2668469	109	2343.1851192839
2	2685561	110	2343.1057073956
2	2708762	111	2343.0252795828
2	2727793	112	2342.945602408
2	2752382	113	2342.8647807919
2	2776362	114	2342.784146937
2	2791109	115	2342.7052836649
2	2806926	116	2342.6261056466
2	2822877	117	2342.5469222609
2	2840294	118	2342.4674485947
2	2867595	119	2342.386230614
2	2885476	120	2342.3066907973
2	2902182	121	2342.2274099789
2	2921804	122	2342.1476075071
2	2935013	123	2342.0689922895
2	2949447	124	2341.9901653416
2	2968417	125	2341.9104873911
2	2985910	126	2341.8311429361
2	3001038	127	2341.7519875769
2	3015681	128	2341.6730452781
2	3033652	129	2341.5934624409
2	3051374	130	2341.5141213483
2	3065936	131	2341.4351923081
2	3083918	132	2341.3557359884
2	3098641	133	2341.276841221
2	3113654	134	2341.1979295359
2	3124914	135	2341.1196870613
2	3139310	136	2341.0408799684
2	3150142	137	2340.9626369737
2	3166295	138	2340.8835594598
2	3179240	139	2340.8050089775
2	3196183	140	2340.7256116285
2	3208747	141	2340.6471412336
2	3220863	142	2340.5685073773
2	3237824	143	2340.4892637384
2	3256995	144	2340.4095269925
2	3267289	145	2340.3314499248
2	3285375	146	2340.2510151548
2	3301909	147	2340.1677589646
2	3310534	148	2340.0898789985
2	3323246	149	2340.0112972629
2	3334053	150	2339.9331468754
2	3346252	151	2339.8546763055
2	3360047	152	2339.7759109799
2	3376584	153	2339.6966109129
2	3395610	154	2339.6169750127
2	3407625	155	2339.5385188737
2	3419443	156	2339.4601222323
2	3433708	157	2339.3812519087
2	3446398	158	2339.3028045415
2	3464517	159	2339.2233491793
2	3474314	160	2339.1452508907
2	3490140	161	2339.0661998282
2	3508309	162	2338.9867755575
2	3524560	163	2338.9074981234
2	3540323	164	2338.8284130509
2	3548302	165	2338.7507786087
2	3566977	166	2338.6711301663
2	3578075	167	2338.5927917812
2	3587787	168	2338.5147327067
2	3602299	169	2338.4357448133
2	3615226	170	2338.357120211
2	3631688	171	2338.277973124
2	3645503	172	2338.1991539888
2	3662439	173	2338.1199028555
2	3679972	174	2338.040566828
2	3691550	175	2337.9623770215
2	3704282	176	2337.8836968618
2	3720372	177	2337.8045443184
2	3734781	178	2337.7256120161
2	3745728	179	2337.6473156776
2	3760913	180	2337.5682296212
2	3777244	181	2337.4888853909
2	3786154	182	2337.4110628097
2	3799605	183	2337.3322957719
2	3812168	184	2337.2539229965
2	3828970	185	2337.1745749948
2	3842721	186	2337.0958183999
2	3858003	187	2337.0167481393
2	3870775	188	2336.9382658935
2	3883299	189	2336.8596719801
2	3898754	190	2336.7806313792
2	3911152	191	2336.7021381533
2	3925514	192	2336.6233313109
2	3939764	193	2336.5445148083
2	3957654	194	2336.4647850208
2	3972825	195	2336.3858392234
2	3986616	196	2336.3070619545
2	4001643	197	2336.2281682079
2	4015434	198	2336.1494922102
2	4026974	199	2336.0712354618
2	4037062	200	2335.9930428791
2	4053741	201	2335.9079884974
2	4068021	202	2335.8292283441
2	4082845	203	2335.7501882355
2	4094979	204	2335.6717767863
2	4108652	205	2335.5929893247
2	4119344	206	2335.5148346815
2	4133724	207	2335.4359774869
2	4153056	208	2335.3562218858
2	4163145	209	2335.2780981213
2	4177329	210	2335.199372308
2	4190370	211	2335.1206278414
2	4203867	212	2335.0418765579
2	4213829	213	2334.9636968574
2	4223870	214	2334.8856213397
2	4234204	215	2334.807512272
2	4245250	216	2334.7292018232
2	4258109	217	2334.6506669239
2	4265499	218	2334.5730565031
2	4279983	219	2334.4941745638
2	4291522	220	2334.4156704153
2	4308657	221	2334.3363060916
2	4324245	222	2334.2571821479
2	4335190	223	2334.1789688977
2	4343899	224	2334.1010861102
2	4355832	225	2334.0226879894
2	4366081	226	2333.9445482391
2	4375341	227	2333.8665364845
2	4389140	228	2333.7877119593
2	4399109	229	2333.7096801584
2	4406516	230	2333.6321444872
2	4419072	231	2333.5535359939
2	4433899	232	2333.4747019069
2	4444630	233	2333.3965302293
2	4457823	234	2333.3177647939
2	4468689	235	2333.2395679016
2	4483735	236	2333.160803872
2	4495071	237	2333.0824824006
2	4505462	238	2333.0045292129
2	4515464	239	2332.9265931435
2	4532395	240	2332.8472353549
2	4544978	241	2332.7687873741
2	4558477	242	2332.6900202736
2	4564636	243	2332.6126268754
2	4574636	244	2332.5344942267
2	4586021	245	2332.4562628967
2	4603171	246	2332.3767720167
2	4616039	247	2332.2981358468
2	4623729	248	2332.2205083201
2	4631341	249	2332.1429869758
2	4642721	250	2332.064779808
2	4651046	251	2331.9870554401
2	4662072	252	2331.9088422225
2	4670916	253	2331.8310456949
2	4679253	254	2331.7533057219
2	4691158	255	2331.6748889755
2	4703957	256	2331.5963249928
2	4712076	257	2331.5185115943
2	4724118	258	2331.4401141083
2	4735177	259	2331.3617850857
2	4745511	260	2331.2836063229
2	4757017	261	2331.2052574748
2	4765779	262	2331.1273823334
2	4772443	263	2331.0499676885
2	4782001	264	2330.9721525124
2	4790474	265	2330.8943870103
2	4800604	266	2330.816388503
2	4806725	267	2330.7389846382
2	4816368	268	2330.6610711178
2	4824840	269	2330.5834061147
2	4832375	270	2330.5058349536
2	4839680	271	2330.4282807418
2	4850817	272	2330.3489007889
2	4863172	273	2330.2655492325
2	4877999	274	2330.1866048508
2	4881465	275	2330.1097476921
2	4892520	276	2330.0313570912
2	4897588	277	2329.95425161
2	4902725	278	2329.8771162937
2	4910690	279	2329.799458855
2	4915728	280	2329.72229714
2	4920892	281	2329.6451517307
2	4931803	282	2329.5669363598
2	4941690	283	2329.4889885145
2	4950651	284	2329.4110910845
2	4958471	285	2329.3334536499
2	4964643	286	2329.2560955484
2	4975293	287	2329.177842422
2	4982011	288	2329.1004526292
2	4991915	289	2329.0225000739
2	5001957	290	2328.944383119
2	5012981	291	2328.8660043037
2	5018108	292	2328.7887728033
2	5025874	293	2328.7111968783
2	5035295	294	2328.6332412991
2	5042508	295	2328.5557919844
2	5051317	296	2328.4779897167
2	5060850	297	2328.3999044439
2	5067876	298	2328.3224002636
2	5074967	299	2328.2448299126
2	5080020	300	2328.1676722677
2	5087551	301	2328.090141223
2	5096477	302	2328.0123182346
2	5107449	303	2327.9341614243
2	5113453	304	2327.8568702572
2	5122841	305	2327.7789473681
2	5128098	306	2327.7017056608
2	5135685	307	2327.6241064125
2	5142112	308	2327.5467195635
2	5149388	309	2327.4691375942
2	5156379	310	2327.3915638442
2	5161269	311	2327.3145195
2	5172634	312	2327.2360680242
2	5187401	313	2327.157284735
2	5195529	314	2327.0796151843
2	5202928	315	2327.002072946
2	5209031	316	2326.9246875325
2	5215386	317	2326.8472837567
2	5220255	318	2326.7702177493
2	5232122	319	2326.6917870588
2	5244057	320	2326.6134087295
2	5251421	321	2326.5358301929
2	5258817	322	2326.4581029963
2	5267690	323	2326.380224913
2	5281962	324	2326.3014183971
2	5284928	325	2326.2245929285
2	5292965	326	2326.1469053392
2	5303158	327	2326.0688765931
2	5308595	328	2325.9916508329
2	5314558	329	2325.9144115673
2	5322823	330	2325.836607971
2	5329377	331	2325.7592293612
2	5339922	332	2325.6810853975
2	5348587	333	2325.6032720967
2	5358082	334	2325.5253905672
2	5367036	335	2325.4475748493
2	5373554	336	2325.3702407978
2	5380053	337	2325.2927492724
2	5390194	338	2325.214760158
2	5397884	339	2325.1370059037
2	5404727	340	2325.059510878
2	5411373	341	2324.9820581472
2	5417740	342	2324.9046431623
2	5429251	343	2324.8261862473
2	5440683	344	2324.7479179729
2	5448920	345	2324.6702325871
2	5459175	346	2324.5921227962
2	5475664	347	2324.5075124183
2	5483507	348	2324.4292625967
2	5494431	349	2324.3510896677
2	5503117	350	2324.2733023141
2	5509207	351	2324.1959128332
2	5518378	352	2324.118007532
2	5522248	353	2324.0410508826
2	5529348	354	2323.9633712568
2	5534949	355	2323.8861372773
2	5542236	356	2323.8086015229
2	5548909	357	2323.7311832571
2	5554652	358	2323.653950341
2	5559450	359	2323.5768378587
2	5566537	360	2323.4992315033
2	5575101	361	2323.421460088
2	5585899	362	2323.3431539047
2	5595015	363	2323.265232165
2	5601835	364	2323.1876748536
2	5609402	365	2323.1100040978
2	5621257	366	2323.0316199655
2	5632469	367	2322.9533220276
2	5641880	368	2322.8753398169
2	5650962	369	2322.7974441491
2	5653737	370	2322.720711606
2	5660159	371	2322.6431511784
2	5667241	372	2322.5656167333
2	5674346	373	2322.4881209285
2	5685967	374	2322.4097834537
2	5692735	375	2322.3323545731
2	5699100	376	2322.2548914293
2	5703740	377	2322.1778610342
2	5712362	378	2322.1000278735
2	5720709	379	2322.0222484113
2	5730929	380	2321.9442152143
2	5737735	381	2321.866843503
2	5752327	382	2321.7881309093
2	5763117	383	2321.7099291826
2	5772077	384	2321.6320236177
2	5783775	385	2321.5536783027
2	5792465	386	2321.4758300196
2	5803003	387	2321.3977050407
2	5813315	388	2321.3196345402
2	5816924	389	2321.2427334536
2	5823690	390	2321.1653202167
2	5828526	391	2321.08808739
2	5836908	392	2321.0104590359
2	5848459	393	2320.9322076147
2	5855363	394	2320.8546911424
2	5864821	395	2320.7767437792
2	5875854	396	2320.6985632028
2	5885917	397	2320.6203066641
2	5892873	398	2320.5427836014
2	5899942	399	2320.4653206224
2	5909902	400	2320.3872764769
2	5915722	401	2320.3100162854
2	5926285	402	2320.2319107682
2	5936281	403	2320.1538872785
2	5946156	404	2320.0757503766
2	5956661	405	2319.9976476474
2	5965475	406	2319.9198142693
2	5972023	407	2319.8423863082
2	5978440	408	2319.7648596175
2	5984400	409	2319.6875854162
2	5987671	410	2319.6107510928
2	5996903	411	2319.5327977556
2	6008890	412	2319.4545653646
2	6017232	413	2319.3768582448
2	6022605	414	2319.2996242653
2	6028010	415	2319.2223985816
2	6035014	416	2319.1448703875
2	6039940	417	2319.067678804
2	6050750	418	2318.9894584004
2	6061889	419	2318.9112615772
2	6075031	420	2318.8279625484
2	6083825	421	2318.7489123779
2	6093048	422	2318.6711005618
2	6102456	423	2318.5931540688
2	6111432	424	2318.5153417233
2	6120680	425	2318.4374177584
2	6126160	426	2318.3602567928
2	6134554	427	2318.2825267884
2	6148906	428	2318.1994595503
2	6160577	429	2318.119414953
2	6173611	430	2318.0408322951
2	6179670	431	2317.9635189178
2	6189531	432	2317.8854978084
2	6196856	433	2317.8079443284
2	6204036	434	2317.7303255207
2	6210879	435	2317.652846744
2	6220780	436	2317.5748627259
2	6225246	437	2317.4978146033
2	6229162	438	2317.4209126418
2	6238037	439	2317.3431637081
2	6244809	440	2317.2656795804
2	6250840	441	2317.188291152
2	6258381	442	2317.1107259366
2	6266659	443	2317.0330695093
2	6276656	444	2316.9549160486
2	6282811	445	2316.8774717028
2	6291787	446	2316.7996545761
2	6299069	447	2316.7220688485
2	6311642	448	2316.6436368232
2	6316706	449	2316.5665560349
2	6325971	450	2316.4886572181
2	6333310	451	2316.4082709075
2	6348707	452	2316.3292991537
2	6352463	453	2316.2524265927
2	6359597	454	2316.1748431048
2	6365170	455	2316.0976188632
2	6376026	456	2316.0195149459
2	6384037	457	2315.9418244919
2	6392554	458	2315.8640387862
2	6400509	459	2315.7862932708
2	6407900	460	2315.7087277402
2	6418564	461	2315.6304935416
2	6428315	462	2315.552474789
2	6433799	463	2315.4752793648
2	6444289	464	2315.3970750584
2	6452374	465	2315.3194441636
2	6461260	466	2315.2414990166
2	6468928	467	2315.1639038261
2	6473619	468	2315.0868852729
2	6481123	469	2315.0092986712
2	6487653	470	2314.9318712299
2	6493006	471	2314.8546485043
2	6501474	472	2314.7768097482
2	6507252	473	2314.6995413271
2	6512732	474	2314.6223155669
2	6520191	475	2314.5445719317
2	6525560	476	2314.4674066183
2	6532920	477	2314.389871084
2	6540271	478	2314.3122887499
2	6550113	479	2314.2342397014
2	6557845	480	2314.1566648277
2	6565340	481	2314.0791228841
2	6572150	482	2314.0017480916
2	6579766	483	2313.9242828829
2	6587234	484	2313.845971035
2	6600910	485	2313.7619103807
2	6609468	486	2313.6841631221
2	6614858	487	2313.6069224836
2	6621046	488	2313.529610646
2	6631693	489	2313.451436117
2	6639925	490	2313.373752267
2	6644466	491	2313.2966983261
2	6652149	492	2313.2191227541
2	6660430	493	2313.1414463633
2	6666032	494	2313.0642123838
2	6672723	495	2312.9867015158
2	6679931	496	2312.9091352564
2	6684656	497	2312.8319470928
2	6688010	498	2312.7550984899
2	6696541	499	2312.6774013685
2	6704121	500	2312.5997361454
2	6709073	501	2312.5225479405
2	6715904	502	2312.4450662719
2	6720703	503	2312.3680242641
2	6724798	504	2312.2909713057
2	6732115	505	2312.2133909964
2	6736901	506	2312.1362561664
2	6744225	507	2312.0586810341
2	6751758	508	2311.9809680196
2	6758418	509	2311.9034604248
2	6763726	510	2311.8261563194
2	6768431	511	2311.7490006851
2	6777787	512	2311.6711036033
2	6781026	513	2311.5942945673
2	6786702	514	2311.5170082919
2	6793928	515	2311.4394509805
2	6801157	516	2311.3618656393
2	6806362	517	2311.284624622
2	6809664	518	2311.2077547396
2	6813136	519	2311.1308523112
2	6825136	520	2311.0524984661
2	6833330	521	2310.9747774646
2	6841409	522	2310.8971534584
2	6849627	523	2310.8193398766
2	6855524	524	2310.7421012087
2	6861270	525	2310.6649248001
2	6867831	526	2310.5874297702
2	6875341	527	2310.509851714
2	6881215	528	2310.4325421419
2	6885257	529	2310.355565008
2	6892249	530	2310.277991258
2	6896161	531	2310.2010982023
2	6902703	532	2310.1237477885
2	6911122	533	2310.0460505428
2	6915966	534	2309.9688658008
2	6921955	535	2309.8916130496
2	6928361	536	2309.8143166823
2	6935057	537	2309.7369814819
2	6941953	538	2309.6595509308
2	6946840	539	2309.5825030558
2	6955048	540	2309.5047765604
2	6959847	541	2309.4277289047
2	6966692	542	2309.3502103437
2	6973221	543	2309.2728267453
2	6980773	544	2309.1952204495
2	6987926	545	2309.1176432309
2	6990759	546	2309.0408822635
2	6997394	547	2308.9635000287
2	7004441	548	2308.8860572037
2	7008948	549	2308.8090536246
2	7016447	550	2308.731432678
2	7022378	551	2308.6541515505
2	7030762	552	2308.5764116717
2	7036901	553	2308.4989645627
2	7044740	554	2308.4213712209
2	7051324	555	2308.3439755755
2	7059088	556	2308.2662963305
2	7064323	557	2308.1891079627
2	7071374	558	2308.1115723072
2	7074566	559	2308.0347175265
2	7080277	560	2307.9574662548
2	7085927	561	2307.8802174966
2	7090994	562	2307.8030671703
2	7094961	563	2307.7260942657
2	7099120	564	2307.6491017362
2	7102382	565	2307.5723237155
2	7107747	566	2307.4951130665
2	7114419	567	2307.4176871213
2	7123894	568	2307.334340447
2	7127183	569	2307.2572297708
2	7133057	570	2307.1798325951
2	7138350	571	2307.1026165844
2	7143199	572	2307.0254519053
2	7149952	573	2306.9480579233
2	7153953	574	2306.871103753
2	7158106	575	2306.7942110042
2	7161482	576	2306.7173423148
2	7169139	577	2306.6352922978
2	7176708	578	2306.5576405648
2	7179147	579	2306.4809244603
2	7187397	580	2306.4032482702
2	7194687	581	2306.3257969168
2	7198232	582	2306.2489751923
2	7202134	583	2306.1720756847
2	7207133	584	2306.0949354504
2	7212055	585	2306.0178569314
2	7220302	586	2305.9400421867
2	7225073	587	2305.8629812353
2	7230087	588	2305.7858413803
2	7236989	589	2305.7084599165
2	7240697	590	2305.6315739267
2	7245939	591	2305.5542677013
2	7252084	592	2305.476872638
2	7261112	593	2305.3991282421
2	7266735	594	2305.3218294077
2	7272987	595	2305.2444826929
2	7278491	596	2305.1672266752
2	7284301	597	2305.0899036393
2	7289352	598	2305.0127722152
2	7298235	599	2304.9349826071
2	7303385	600	2304.8577650662
2	7307653	601	2304.7807811339
2	7314306	602	2304.7032918308
2	7318735	603	2304.6262277518
2	7323940	604	2304.5490019916
2	7331532	605	2304.4713906323
2	7337703	606	2304.3941099872
2	7344909	607	2304.3166341536
2	7349094	608	2304.2396106949
2	7355026	609	2304.162266475
2	7358784	610	2304.0852815638
2	7365995	611	2304.0078385724
2	7372392	612	2303.9304780094
2	7376328	613	2303.8535851754
2	7378714	614	2303.7768772902
2	7382135	615	2303.6999995197
2	7388301	616	2303.6226471386
2	7393971	617	2303.5453710823
2	7396565	618	2303.4686154057
2	7406420	619	2303.3869788384
2	7418450	620	2303.306437099
2	7424564	621	2303.2291504953
2	7429515	622	2303.1520962467
2	7432947	623	2303.0752402471
2	7437500	624	2302.9981002964
2	7443932	625	2302.9207095174
2	7448553	626	2302.8436897708
2	7453770	627	2302.7665790309
2	7460354	628	2302.6891668261
2	7466507	629	2302.611768192
2	7474710	630	2302.5340438198
2	7481245	631	2302.4566076752
2	7484855	632	2302.3796941683
2	7491752	633	2302.3022457129
2	7494512	634	2302.22554379
2	7497318	635	2302.1487789851
2	7505126	636	2302.0711833023
2	7510093	637	2301.9940091882
2	7519818	638	2301.9161749883
2	7523354	639	2301.8392972178
2	7529480	640	2301.7620114964
2	7534286	641	2301.6847692917
2	7537170	642	2301.6079690775
2	7543979	643	2301.53051643
2	7547989	644	2301.4535482835
2	7551768	645	2301.3765704556
2	7556515	646	2301.2994355328
2	7562061	647	2301.2221718276
2	7566921	648	2301.1450630602
2	7572303	649	2301.0678455192
2	7574801	650	2300.991137634
2	7580577	651	2300.9139118738
2	7585191	652	2300.8368371106
2	7590859	653	2300.7596138
2	7599787	654	2300.6817605296
2	7606812	655	2300.6041594068
2	7611731	656	2300.5269254273
2	7616241	657	2300.4498695523
2	7622430	658	2300.3724327064
2	7625491	659	2300.295610915
2	7631635	660	2300.2181994608
2	7635020	661	2300.1413145012
2	7639828	662	2300.0640969603
2	7643088	663	2299.987274589
2	7652627	664	2299.9093040094
2	7656755	665	2299.8323542565
2	7662406	666	2299.7551648631
2	7667893	667	2299.6780294437
2	7671200	668	2299.6011516733
2	7677503	669	2299.5238511007
2	7684763	670	2299.4461924899
2	7688603	671	2299.3693353815
2	7692844	672	2299.2923509801
2	7696252	673	2299.2154649904
2	7702437	674	2299.1380611256
2	7708990	675	2299.0606732845
2	7712738	676	2298.9836804465
2	7723981	677	2298.905570791
2	7736674	678	2298.8270520221
2	7741091	679	2298.7500776877
2	7743922	680	2298.673315717
2	7747505	681	2298.5964132886
2	7754299	682	2298.5189105432
2	7762285	683	2298.4413361101
2	7766270	684	2298.3643624598
2	7771087	685	2298.2872638342
2	7777422	686	2298.2099295125
2	7781584	687	2298.1329835616
2	7785272	688	2298.0561117659
2	7788136	689	2297.9792798617
2	7793316	690	2297.9021054389
2	7802898	691	2297.8242044003
2	7808604	692	2297.7469190057
2	7812769	693	2297.6699054912
2	7820049	694	2297.592449426
2	7824791	695	2297.5152636095
2	7831218	696	2297.4378621462
2	7833887	697	2297.3611460417
2	7842453	698	2297.2833477363
2	7847646	699	2297.2062152799
2	7853261	700	2297.1289018591
2	7857504	701	2297.0518571247
2	7863274	702	2296.9746247154
2	7868920	703	2296.8974197087
2	7874629	704	2296.8202748525
2	7881073	705	2296.7428879649
2	7884751	706	2296.6659656409
2	7887596	707	2296.5891721563
2	7891129	708	2296.5122943858
2	7895765	709	2296.4351732516
2	7898551	710	2296.3584100878
2	7902142	711	2296.2815240981
2	7909754	712	2296.2039152492
2	7919356	713	2296.1260657896
2	7922534	714	2296.0491633613
2	7928780	715	2295.9717677158
2	7937567	716	2295.8939105997
2	7943904	717	2295.8166156154
2	7953905	718	2295.7385858432
2	7960973	719	2295.661082193
2	7968295	720	2295.5835807285
2	7973902	721	2295.5063755879
2	7977209	722	2295.4294978175
2	7981146	723	2295.3525899085
2	7985485	724	2295.2755258142
2	7989929	725	2295.1985552845
2	7995341	726	2295.1213304912
2	8003970	727	2295.0436486753
2	8009451	728	2294.9663869006
2	8021988	729	2294.8790223191
2	8027461	730	2294.8018690435
2	8034319	731	2294.7244165858
2	8038597	732	2294.6473665782
2	8043874	733	2294.5702327827
2	8048504	734	2294.4931896435
2	8054805	735	2294.4158127767
2	8061540	736	2294.3384056818
2	8066441	737	2294.2613123673
2	8068996	738	2294.1845962628
2	8072526	739	2294.1077020537
2	8078965	740	2294.0303553327
2	8085964	741	2293.9528988324
2	8091646	742	2293.8756232252
2	8098492	743	2293.7980505386
2	8102318	744	2293.7211173693
2	8104475	745	2293.6444946628
2	8106859	746	2293.5677867775
2	8112529	747	2293.4905278819
2	8119086	748	2293.4130199179
2	8125372	749	2293.3357080817
2	8132602	750	2293.2582309149
2	8138342	751	2293.181029023
2	8142768	752	2293.1039628893
2	8149782	753	2293.0264913628
2	8156536	754	2292.9490806049
2	8160104	755	2292.8721946151
2	8166472	756	2292.794844586
2	8171893	757	2292.7175342492
2	8181518	758	2292.6395141236
2	8189123	759	2292.5618721931
2	8196911	760	2292.4841367772
2	8202062	761	2292.4069192363
2	8206655	762	2292.3298406792
2	8210402	763	2292.2529525929
2	8215879	764	2292.1757979339
2	8221474	765	2292.098634837
2	8224490	766	2292.021880489
2	8230512	767	2291.9446237856
2	8240096	768	2291.8666420722
2	8244212	769	2291.7896796999
2	8249664	770	2291.7124205758
2	8255079	771	2291.6352033836
2	8261290	772	2291.557811929
2	8267938	773	2291.4803960707
2	8275362	774	2291.4028792223
2	8279702	775	2291.3258726655
2	8288611	776	2291.2479436899
2	8295145	777	2291.1705336686
2	8298120	778	2291.0937158168
2	8307465	779	2291.0159661686
2	8310721	780	2290.9391707352
2	8318413	781	2290.861657302
2	8322075	782	2290.7847868771
2	8327833	783	2290.7075131558
2	8332445	784	2290.6303756383
2	8338538	785	2290.5531125297
2	8344440	786	2290.4757168843
2	8346713	787	2290.3990089991
2	8349326	788	2290.3223011138
2	8353779	789	2290.2452370196
2	8360064	790	2290.1678249355
2	8363599	791	2290.0909471651
2	8370804	792	2290.0133651958
2	8382032	793	2289.9350397009
2	8387555	794	2289.8577244787
2	8392126	795	2289.7806768231
2	8396623	796	2289.7036127288
2	8402225	797	2289.6263322806
2	8406347	798	2289.5493475322
2	8413492	799	2289.4717648308
2	8417881	800	2289.3947241074
2	8422144	801	2289.3176605739
2	8427313	802	2289.2404201647
2	8431453	803	2289.1633496235
2	8437407	804	2289.0860094095
2	8440189	805	2289.0092933049
2	8443610	806	2288.9324155345
2	8446333	807	2288.8556912107
2	8452223	808	2288.7783037845
2	8455008	809	2288.7015627569
2	8459665	810	2288.6244998557
2	8464001	811	2288.5474272297
2	8468428	812	2288.4703840155
2	8471167	813	2288.3936582334
2	8474787	814	2288.3167737019
2	8477130	815	2288.2401949368
2	8487035	816	2288.1622473025
2	8496131	817	2288.0844613126
2	8504332	818	2288.006768532
2	8510748	819	2287.9294052306
2	8516985	820	2287.8521078062
2	8521412	821	2287.7750865
2	8525907	822	2287.6980919986
2	8530768	823	2287.6209761625
2	8535704	824	2287.5438748083
2	8542370	825	2287.4664479119
2	8548826	826	2287.3890434456
2	8554766	827	2287.3115928995
2	8562309	828	2287.2339638679
2	8567907	829	2287.1567620543
2	8574567	830	2287.0792602699
2	8580155	831	2287.0020042546
2	8586791	832	2286.9245670573
2	8590608	833	2286.8476656998
2	8594574	834	2286.7707014276
2	8600222	835	2286.6934857693
2	8604019	836	2286.6165513916
2	8614514	837	2286.5383302206
2	8621503	838	2286.4608345637
2	8626192	839	2286.3837303008
2	8632143	840	2286.306403893
2	8636688	841	2286.2293150338
2	8642901	842	2286.1519430601
2	8649685	843	2286.0745447885
2	8652042	844	2285.9978612299
2	8654971	845	2285.9210944373
2	8659320	846	2285.8441356104
2	8665442	847	2285.7668363103
2	8671770	848	2285.6895208346
2	8678231	849	2285.6120892407
2	8683200	850	2285.5349733366
2	8687337	851	2285.458043088
2	8689779	852	2285.3813269835
2	8692953	853	2285.304564668
2	8695609	854	2285.2278573641
2	8700183	855	2285.1508350134
2	8707809	856	2285.0731900414
2	8712358	857	2284.9961596464
2	8717891	858	2284.9189316916
2	8721684	859	2284.8420078922
2	8727241	860	2284.7647281674
2	8732862	861	2284.6874733946
2	8739678	862	2284.6100658756
2	8745336	863	2284.5329052591
2	8751952	864	2284.4554414332
2	8758084	865	2284.3781103532
2	8764900	866	2284.3006875623
2	8768459	867	2284.2237410574
2	8774795	868	2284.1464610859
2	8779556	869	2284.0693130673
2	8784143	870	2283.9922758883
2	8790740	871	2283.9147712569
2	8794515	872	2283.8378728829
2	8799364	873	2283.7608005693
2	8807320	874	2283.6831196339
2	8811478	875	2283.6061924644
2	8816268	876	2283.5291448087
2	8822653	877	2283.4518704332
2	8828511	878	2283.3745728202
2	8833509	879	2283.2973860356
2	8837280	880	2283.2204123852
2	8847456	881	2283.1422950947
2	8855419	882	2283.0646159646
2	8858617	883	2282.9878121994
2	8862435	884	2282.9108954687
2	8867199	885	2282.8338343202
2	8871218	886	2282.7568680084
2	8876556	887	2282.6796753906
2	8879488	888	2282.6029538501
2	8884446	889	2282.5257998713
2	8889744	890	2282.4487144853
2	8896983	891	2282.3711717049
2	8901126	892	2282.294225754
2	8904770	893	2282.2173929186
2	8910614	894	2282.1400794853
2	8914445	895	2282.0631150848
2	8920361	896	2281.9858214446
2	8925188	897	2281.9087199468
2	8929870	898	2281.831637429
2	8933551	899	2281.7547836302
2	8939682	900	2281.6775418771
2	8944637	901	2281.6004329575
2	8949430	902	2281.5232442477
2	8954797	903	2281.446100415
2	8959992	904	2281.368876113
2	8966895	905	2281.2915021791
2	8973741	906	2281.2140749596
2	8979500	907	2281.1368184585
2	8984838	908	2281.0595449068
2	8991782	909	2280.9821726232
2	8996565	910	2280.9051285529
2	8998945	911	2280.8284042291
2	9005884	912	2280.7509364795
2	9019199	913	2280.6664410353
2	9026785	914	2280.5888875547
2	9030958	915	2280.5119670712
2	9037901	916	2280.4345578955
2	9041603	917	2280.3576844291
2	9044106	918	2280.2809765439
2	9049851	919	2280.2037537044
2	9055785	920	2280.1264223789
2	9058373	921	2280.0497368149
2	9063693	922	2279.9725110547
2	9069520	923	2279.8952283749
2	9073210	924	2279.8182824239
2	9076539	925	2279.7414593161
2	9081504	926	2279.664354117
2	9086167	927	2279.5872767071
2	9097088	928	2279.5036096352
2	9102640	929	2279.4259673773
2	9106712	930	2279.3490199684
2	9114852	931	2279.2712763332
2	9119252	932	2279.1942204582
2	9123652	933	2279.1171645832
2	9128390	934	2279.0401087082
2	9130775	935	2278.963400823
2	9135746	936	2278.8863531673
2	9138245	937	2278.8096452821
2	9140912	938	2278.7329291775
2	9143034	939	2278.6562964565
2	9150802	940	2278.578639323
2	9157095	941	2278.5012354583
2	9163338	942	2278.4238398128
2	9166754	943	2278.3469456038
2	9172007	944	2278.2697198436
2	9178477	945	2278.1923241981
2	9183337	946	2278.1151066572
2	9185891	947	2278.0383905527
2	9187468	948	2277.9618525527
2	9193387	949	2277.8844651265
2	9198073	950	2277.8074174708
2	9203176	951	2277.7302532781
2	9206579	952	2277.6533820781
2	9211673	953	2277.5762580652
2	9215095	954	2277.4993802947
2	9219916	955	2277.4223244197
2	9225671	956	2277.3450364913
2	9230778	957	2277.2678774713
2	9235079	958	2277.1909111403
2	9240571	959	2277.1136452114
2	9244390	960	2277.0366295051
2	9251108	961	2276.9591184996
2	9258766	962	2276.881555718
2	9264712	963	2276.8042313288
2	9269586	964	2276.7270780406
2	9274111	965	2276.6500588814
2	9282114	966	2276.572396075
2	9286830	967	2276.4952603605
2	9294131	968	2276.4176363744
2	9298550	969	2276.3405653478
2	9303364	970	2276.2633989003
2	9308270	971	2276.1863233668
2	9312462	972	2276.1093893827
2	9318823	973	2276.0319684992
2	9322957	974	2275.9550583027
2	9327460	975	2275.878010647
2	9333403	976	2275.8007601206
2	9337501	977	2275.7238250506
2	9343787	978	2275.646465062
2	9348286	979	2275.569494935
2	9353338	980	2275.4923085716
2	9359257	981	2275.4150523477
2	9362987	982	2275.3381765836
2	9366066	983	2275.2614038738
2	9371394	984	2275.1841636093
2	9375155	985	2275.1072821361
2	9378833	986	2275.0304425896
2	9386906	987	2274.9527880305
2	9394232	988	2274.8752127443
2	9398784	989	2274.798180841
2	9401280	990	2274.7214565171
2	9407102	991	2274.6441349895
2	9411725	992	2274.5670626759