version 2
run General-0-20140630-02:11:44-28594
attr configname General
attr datetime 20140630-02:11:44
attr experiment General
attr inifile omnetpp.ini
attr iterationvars ""
attr iterationvars2 $repetition=0
attr measurement ""
attr network WSN
attr processid 28594
attr repetition 0
attr replication #0
attr resultdir results
attr runnumber 0
attr seedset 0

vector 3  WSN.statistic  sensorEnergy:vector  ETV
attr title  "Sensor energy, vector"
vector 4  WSN.statistic  sensorEnergyLevel:vector  ETV
attr title  "Sensor energy (level), vector"
3	15592036	3540	3.164612222739
3	15592036	3540	3.1646991577245
3	15592036	3540	3.1632203490953
3	15592036	3540	3.1535862651605
3	15592036	3540	3.1494459260756
3	15592036	3540	3.1159273764816
3	15592036	3540	3.1466947028773
3	15592036	3540	3.1532588561096
3	15592036	3540	3.1538389788502
3	15592036	3540	3.1551298787338
3	15592036	3540	3.1550377811728
3	15592036	3540	3.1583748603614
3	15592036	3540	3.1646990600391
3	15592036	3540	3.1641765202239
3	15592036	3540	3.1527239269526
3	15592036	3540	3.151762374867
3	15592036	3540	3.1393779754211
3	15592036	3540	3.1320622224248
3	15592036	3540	3.1517877994053
3	15592036	3540	3.1518517808854
3	15592036	3540	3.1515796854356
3	15592036	3540	3.1522665118617
3	15592036	3540	3.1522237565114
3	15592036	3540	3.1566582850614
3	15592036	3540	3.1605782068402
3	15592036	3540	3.1524571841028
3	15592036	3540	3.1517664353888
3	15592036	3540	3.1511715137823
3	15592036	3540	3.1407006692737
3	15592036	3540	3.144439589861
3	15592036	3540	3.1398853185941
3	15592036	3540	3.1421817517793
3	15592036	3540	3.1427966001428
3	15592036	3540	3.1431510751292
3	15592036	3540	3.1522614975114
3	15592036	3540	3.1588315445538
3	15592036	3540	3.1603701042788
3	15592036	3540	3.1596658827142
3	15592036	3540	3.1513591756531
3	15592036	3540	3.1428444687202
3	15592036	3540	3.1578015588461
3	15592036	3540	3.1457081259421
3	15592036	3540	3.1520429978097
3	15592036	3540	3.1500842723611
3	15592036	3540	3.1573705485219
3	15592036	3540	3.1441640092177
3	15592036	3540	3.1519132363497
3	15592036	3540	3.1650469735832
3	15592036	3540	3.1630839073736
3	15592036	3540	3.159974687914
3	15592036	3540	3.1538833137655
3	15592036	3540	3.1469464883204
3	15592036	3540	3.1590918441988
3	15592036	3540	3.1612969051681
3	15592036	3540	3.1579133959827
3	15592036	3540	3.161273539939
3	15592036	3540	3.1574273234984
3	15592036	3540	3.144627160305
3	15592036	3540	3.1519936523257
3	15592036	3540	3.1651672120022
3	15592036	3540	3.1629783080683
3	15592036	3540	3.1710474787313
3	15592036	3540	3.1537318978492
3	15592036	3540	3.1475260262684
3	15592036	3540	3.1591123119512
3	15592036	3540	3.1516994791338
3	15592036	3540	3.148207601185
3	15592036	3540	3.1614647917371
3	15592036	3540	3.1574999392038
3	15592036	3540	3.1480369803792
3	15592036	3540	3.1497374329778
3	15592036	3540	3.1600354690096
3	15592036	3540	3.1630839070976
3	15592036	3540	3.1576372905453
3	15592036	3540	3.149846483956
3	15592036	3540	3.1524917298545
3	15592036	3540	3.1591486187369
3	15592036	3540	3.1520631847843
3	15592036	3540	3.1483728409851
3	15592036	3540	3.1515075615846
3	15592036	3540	3.1575362458616
3	15592036	3540	3.1485734338605
3	15592036	3540	3.1496091105026
3	15592036	3540	3.1602415370195
3	15592036	3540	3.1629677470733
3	15592036	3540	3.1581340625051
3	15592036	3540	3.1507683999705
3	15592036	3540	3.1534007760887
3	15592036	3540	3.1591954856671
3	15592036	3540	3.1533990499834
3	15592036	3540	3.1480465760354
3	15592036	3540	3.1621211316025
3	15592036	3540	3.1575362458612
3	15592036	3540	3.1492542633646
3	15592036	3540	3.1514462693778
3	15592036	3540	3.1601391396694
3	15592036	3540	3.1631525476713
3	15592036	3540	3.157932112405
3	15592036	3540	3.1514440405707
3	15592036	3540	3.153336287818
3	15592036	3540	3.1586485931814
3	15592036	3540	3.150313350822
3	15592036	3540	3.1535361996331
3	15592036	3540	3.162826719719
3	15592036	3540	3.1630839057249
3	15592036	3540	3.1520276754779
3	15592036	3540	3.149921936128
3	15592036	3540	3.1598824256645
3	15592036	3540	3.1630469481639
3	15592036	3540	3.1574880876306
3	15592036	3540	3.1527491168696
3	15592036	3540	3.1537797393197
3	15592036	3540	3.1592265136179
3	15592036	3540	3.1537042746836
3	15592036	3540	3.1505284058336
3	15592036	3540	3.1624912714197
3	15592036	3540	3.163120867301
3	15592036	3540	3.1571247305012
3	15592036	3540	3.1567976917012
3	15592036	3540	3.1619019725838
3	15592036	3540	3.1630891880718
3	15592036	3540	3.160883791095
3	15592036	3540	3.1577432706106
3	15592036	3540	3.15725371671
3	15592036	3540	3.1629835866555
3	15592036	3540	3.1626257227698
3	15592036	3540	3.1547113190659
3	15592036	3540	3.1629593605603
3	15592036	3540	3.1630733476768
3	15592036	3540	3.1578006832507
3	15592036	3540	3.1619274793838
3	15592036	3540	3.1627758152571
3	15592036	3540	3.1630627877287
3	15592036	3540	3.163062787097
3	15592036	3540	3.1582963139585
3	15592036	3540	3.1577913441084
3	15592036	3540	3.1631208688164
3	15592036	3540	3.1605570529144
3	15592036	3540	3.155315697016
3	15592036	3540	3.1553282106155
3	15592036	3540	3.1629466277298
3	15592036	3540	3.2586249914356
3	15592036	3540	3.1623303961067
3	15592036	3540	3.1668850904396
4	15592036	3540	35
4	15592036	3540	35
4	15592036	3540	35
4	15592036	3540	35
4	15592036	3540	34
4	15592036	3540	34
4	15592036	3540	34
4	15592036	3540	35
4	15592036	3540	35
4	15592036	3540	35
4	15592036	3540	35
4	15592036	3540	35
4	15592036	3540	35
4	15592036	3540	35
4	15592036	3540	35
4	15592036	3540	35
4	15592036	3540	34
4	15592036	3540	34
4	15592036	3540	35
4	15592036	3540	35
4	15592036	3540	35
4	15592036	3540	35
4	15592036	3540	35
4	15592036	3540	35
4	15592036	3540	35
4	15592036	3540	35
4	15592036	3540	35
4	15592036	3540	35
4	15592036	3540	34
4	15592036	3540	34
4	15592036	3540	34
4	15592036	3540	34
4	15592036	3540	34
4	15592036	3540	34
4	15592036	3540	35
4	15592036	3540	35
4	15592036	3540	35
4	15592036	3540	35
4	15592036	3540	35
4	15592036	3540	34
4	15592036	3540	35
4	15592036	3540	34
4	15592036	3540	35
4	15592036	3540	35
4	15592036	3540	35
4	15592036	3540	34
4	15592036	3540	35
4	15592036	3540	35
4	15592036	3540	35
4	15592036	3540	35
4	15592036	3540	35
4	15592036	3540	34
4	15592036	3540	35
4	15592036	3540	35
4	15592036	3540	35
4	15592036	3540	35
4	15592036	3540	35
4	15592036	3540	34
4	15592036	3540	35
4	15592036	3540	35
4	15592036	3540	35
4	15592036	3540	35
4	15592036	3540	35
4	15592036	3540	34
4	15592036	3540	35
4	15592036	3540	35
4	15592036	3540	34
4	15592036	3540	35
4	15592036	3540	35
4	15592036	3540	34
4	15592036	3540	34
4	15592036	3540	35
4	15592036	3540	35
4	15592036	3540	35
4	15592036	3540	34
4	15592036	3540	35
4	15592036	3540	35
4	15592036	3540	35
4	15592036	3540	34
4	15592036	3540	35
4	15592036	3540	35
4	15592036	3540	34
4	15592036	3540	34
4	15592036	3540	35
4	15592036	3540	35
4	15592036	3540	35
4	15592036	3540	35
4	15592036	3540	35
4	15592036	3540	35
4	15592036	3540	35
4	15592036	3540	34
4	15592036	3540	35
4	15592036	3540	35
4	15592036	3540	34
4	15592036	3540	35
4	15592036	3540	35
4	15592036	3540	35
4	15592036	3540	35
4	15592036	3540	35
4	15592036	3540	35
4	15592036	3540	35
4	15592036	3540	35
4	15592036	3540	35
4	15592036	3540	35
4	15592036	3540	35
4	15592036	3540	35
4	15592036	3540	34
4	15592036	3540	35
4	15592036	3540	35
4	15592036	3540	35
4	15592036	3540	35
4	15592036	3540	35
4	15592036	3540	35
4	15592036	3540	35
4	15592036	3540	35
4	15592036	3540	35
4	15592036	3540	35
4	15592036	3540	35
4	15592036	3540	35
4	15592036	3540	35
4	15592036	3540	35
4	15592036	3540	35
4	15592036	3540	35
4	15592036	3540	35
4	15592036	3540	35
4	15592036	3540	35
4	15592036	3540	35
4	15592036	3540	35
4	15592036	3540	35
4	15592036	3540	35
4	15592036	3540	35
4	15592036	3540	35
4	15592036	3540	35
4	15592036	3540	35
4	15592036	3540	35
4	15592036	3540	35
4	15592036	3540	35
4	15592036	3540	35
4	15592036	3540	35
4	15592036	3540	35
4	15592036	3540	35
4	15592036	3540	36
4	15592036	3540	35
4	15592036	3540	35
