version 2
run General-0-20140518-15:26:19-22202
attr configname General
attr datetime 20140518-15:26:19
attr experiment General
attr inifile omnetpp.ini
attr iterationvars ""
attr iterationvars2 $repetition=0
attr measurement ""
attr network WSN
attr processid 22202
attr repetition 0
attr replication #0
attr resultdir results
attr runnumber 0
attr seedset 0

vector 2  WSN.statistic  networkEnergy:vector  ETV
attr title  "Node energy, vector"
vector 3  WSN.statistic  sensorEnergy:vector  ETV
attr title  "Sensor energy, vector"
2	198	0	588000
2	1578	1	587999.923462
2	3155	2	587999.846924
2	4820	3	587999.770386
2	7006	4	587999.693848
2	8595	5	587999.61731
2	10172	6	587999.540772
2	12844	7	587999.46406412
2	15437	8	587999.38735623
2	17632	9	587999.3106707
2	20837	10	587999.23377057
2	26552	11	587999.15655303
2	28871	12	587999.07984515
2	34323	13	587999.0025279
2	41168	14	587998.92508865
2	49372	15	587998.84726776
2	55905	16	587998.76977297
2	66736	17	587998.6915314
2	78974	18	587998.6130961
2	90282	19	587998.5346819
2	103281	20	587998.45602858
2	124050	21	587998.37595918
2	134012	22	587998.29794765
2	151386	23	587998.21843222
2	175019	24	587998.13780903
2	196144	25	587998.05783604
2	218017	26	587997.97756567
2	243213	27	587997.896583
2	276479	28	587997.81420125
2	298901	29	587997.73379951
2	329210	30	587997.65202256
2	355522	31	587997.57079579
2	394509	32	587997.48736167
2	416998	33	587997.40701929
2	453837	34	587997.32398614
2	496347	35	587997.23976356
2	517888	36	587997.15954296
2	560250	37	587997.07532913
2	594145	38	587996.99305404
2	636738	39	587996.90884814
2	667785	40	587996.82680823
2	708583	41	587996.74312363
2	745600	42	587996.6600726
2	788946	43	587996.57568687
2	825881	44	587996.49274923
2	867273	45	587996.40888246
2	904903	46	587996.32550977
2	945673	47	587996.24190209
2	977215	48	587996.15983754
2	1022918	49	587996.07494294
2	1064526	50	587995.99102258
2	1096452	51	587995.9090087
2	1132027	52	587995.82612995
2	1173038	53	587995.74220759
2	1208598	54	587995.65921965
2	1239014	55	587995.57753302
2	1274721	56	587995.49452994
2	1306640	57	587995.41230618
2	1342956	58	587995.32940797
2	1369914	59	587995.24811538
2	1405884	60	587995.16530688
2	1439607	61	587995.08259416
2	1473353	62	587995.00011355
2	1499149	63	587994.91916432
2	1532671	64	587994.83673746
2	1561453	65	587994.75524796
2	1588363	66	587994.67425567
2	1615728	67	587994.59282923
2	1644059	68	587994.51123139
2	1670046	69	587994.43030245
2	1695236	70	587994.34945377
2	1723580	71	587994.26794169
2	1751070	72	587994.18658293
2	1772217	73	587994.10649767
2	1801360	74	587994.02495863
2	1826066	75	587993.94408915
2	1843722	76	587993.8645467
2	1864870	77	587993.78438073
2	1895616	78	587993.70251099
2	1923228	79	587993.62115266
2	1945998	80	587993.54078202
2	1967404	81	587993.46067632
2	2002087	82	587993.3778885
2	2023082	83	587993.29764398
2	2045042	84	587993.21736965
2	2069497	85	587993.13678741
2	2096373	86	587993.05556091
2	2123693	87	587992.97429918
2	2149526	88	587992.89326145
2	2178070	89	587992.81151858
2	2204418	90	587992.73036601
2	2228965	91	587992.64981214
2	2248930	92	587992.5699336
2	2273389	93	587992.48929712
2	2297276	94	587992.40852395
2	2333499	95	587992.32009352
2	2358121	96	587992.23896077
2	2380526	97	587992.15867559
2	2399720	98	587992.07894467
2	2424551	99	587991.99799951
2	2454131	100	587991.91642322
2	2473991	101	587991.83645861
2	2497252	102	587991.75607554
2	2525084	103	587991.67466962
2	2548319	104	587991.59415162
2	2576362	105	587991.51282302
2	2591762	106	587991.43383717
2	2618727	107	587991.35258653
2	2645741	108	587991.26995344
2	2669140	109	587991.18511925
2	2686241	110	587991.10570737
2	2709451	111	587991.02527955
2	2728485	112	587990.94560238
2	2753082	113	587990.86478076
2	2777068	114	587990.78414691
2	2791823	115	587990.70528363
2	2807650	116	587990.62610561
2	2823606	117	587990.54692223
2	2841031	118	587990.46744856
2	2868340	119	587990.38623058
2	2886225	120	587990.30669076
2	2902936	121	587990.22740995
2	2922565	122	587990.14760747
2	2935780	123	587990.06899226
2	2950225	124	587989.99016531
2	2969198	125	587989.91048736
2	2986695	126	587989.8311429
2	3001828	127	587989.75198754
2	3016479	128	587989.67304524
2	3034457	129	587989.59346241
2	3052185	130	587989.51412131
2	3066752	131	587989.43519227
2	3084736	132	587989.35573595
2	3099465	133	587989.27684119
2	3114483	134	587989.1979295
2	3125748	135	587989.11968703
2	3140147	136	587989.04087993
2	3150988	137	587988.96263694
2	3167146	138	587988.88355942
2	3180100	139	587988.80500894
2	3197047	140	587988.72561159
2	3209617	141	587988.6471412
2	3221736	142	587988.56850734
2	3238701	143	587988.4892637
2	3257873	144	587988.40952696
2	3268171	145	587988.33144989
2	3286266	146	587988.25101512
2	3302806	147	587988.16775893
2	3311432	148	587988.08987896
2	3324149	149	587988.01129723
2	3334959	150	587987.93314684
2	3347165	151	587987.85467627
2	3360963	152	587987.77591094
2	3377504	153	587987.69661087
2	3396534	154	587987.61697497
2	3408554	155	587987.53851883
2	3420374	156	587987.46012219
2	3434642	157	587987.38125187
2	3447332	158	587987.3028045
2	3465454	159	587987.22334914
2	3475255	160	587987.14525085
2	3491086	161	587987.06619979
2	3509262	162	587986.98677552
2	3525518	163	587986.90749808
2	3541286	164	587986.82841301
2	3549269	165	587986.75077857
2	3567946	166	587986.67113013
2	3579047	167	587986.59279174
2	3588765	168	587986.51473267
2	3603284	169	587986.43574477
2	3616214	170	587986.35712017
2	3632679	171	587986.27797308
2	3646499	172	587986.19915395
2	3663438	173	587986.11990281
2	3680976	174	587986.04056679
2	3692558	175	587985.96237698
2	3705294	176	587985.88369682
2	3721384	177	587985.80454428
2	3735798	178	587985.72561197
2	3746750	179	587985.64731564
2	3761940	180	587985.56822958
2	3778273	181	587985.48888535
2	3787189	182	587985.41106277
2	3800644	183	587985.33229573
2	3813210	184	587985.25392295
2	3830016	185	587985.17457495
2	3843770	186	587985.09581836
2	3859055	187	587985.0167481
2	3871834	188	587984.93826585
2	3884363	189	587984.85967194
2	3899823	190	587984.78063133
2	3912226	191	587984.70213811
2	3926590	192	587984.62333127
2	3940843	193	587984.54451476
2	3958734	194	587984.46478498
2	3973906	195	587984.38583918
2	3987703	196	587984.30706191
2	4002733	197	587984.22816816
2	4016527	198	587984.14949216
2	4028073	199	587984.07123542
2	4038168	200	587983.99304283
2	4054849	201	587983.90798845
2	4069134	202	587983.8292283
2	4083961	203	587983.75018819
2	4096100	204	587983.67177674
2	4109774	205	587983.59298928
2	4120467	206	587983.51483463
2	4134852	207	587983.43597744
2	4154186	208	587983.35622184
2	4164280	209	587983.27809807
2	4178467	210	587983.19937226
2	4191510	211	587983.12062779
2	4205012	212	587983.04187651
2	4214977	213	587982.96369681
2	4225023	214	587982.88562129
2	4235359	215	587982.80751222
2	4246410	216	587982.72920178
2	4259271	217	587982.65066688
2	4266666	218	587982.57305646
2	4281150	219	587982.49417452
2	4292692	220	587982.41567037
2	4309832	221	587982.33630604
2	4325422	222	587982.2571821
2	4336369	223	587982.17896885
2	4345082	224	587982.10108606
2	4357018	225	587982.02268794
2	4367271	226	587981.94454819
2	4376535	227	587981.86653643
2	4390337	228	587981.78771191
2	4400311	229	587981.70968011
2	4407720	230	587981.63214444
2	4420277	231	587981.55353594
2	4435109	232	587981.47470186
2	4445845	233	587981.39653018
2	4459044	234	587981.31776474
2	4469915	235	587981.23956785
2	4484965	236	587981.16080382
2	4496303	237	587981.08248235
2	4506696	238	587981.00452916
2	4516700	239	587980.92659309
2	4533633	240	587980.8472353
2	4546216	241	587980.76878732
2	4559718	242	587980.69002022
2	4565881	243	587980.61262682
2	4575889	244	587980.53449418
2	4587278	245	587980.45626284
2	4604432	246	587980.37677196
2	4617304	247	587980.29813579
2	4624996	248	587980.22050827
2	4632613	249	587980.14298692
2	4643996	250	587980.06477976
2	4652321	251	587979.98705539
2	4663348	252	587979.90884217
2	4672193	253	587979.83104564
2	4680531	254	587979.75330567
2	4692440	255	587979.67488892
2	4705245	256	587979.59632494
2	4713367	257	587979.51851154
2	4725415	258	587979.44011405
2	4736478	259	587979.36178503
2	4746818	260	587979.28360627
2	4758327	261	587979.20525742
2	4767094	262	587979.12738228
2	4773760	263	587979.04996763
2	4783321	264	587978.97215246
2	4791796	265	587978.89438696
2	4801927	266	587978.81638845
2	4808050	267	587978.73898458
2	4817695	268	587978.66107106
2	4826170	269	587978.58340606
2	4833708	270	587978.5058349
2	4841016	271	587978.42828069
2	4852157	272	587978.34890073
2	4864514	273	587978.26554918
2	4879343	274	587978.1866048
2	4882813	275	587978.10974764
2	4893871	276	587978.03135704
2	4898941	277	587977.95425156
2	4904078	278	587977.87711624
2	4912044	279	587977.7994588
2	4917087	280	587977.72229708
2	4922253	281	587977.64515168
2	4933166	282	587977.5669363
2	4943055	283	587977.48898846
2	4952016	284	587977.41109103
2	4959838	285	587977.33345359
2	4966012	286	587977.25609549
2	4976663	287	587977.17784237
2	4983385	288	587977.10045257
2	4993291	289	587977.02250002
2	5003338	290	587976.94438306
2	5014365	291	587976.86600425
2	5019494	292	587976.78877275
2	5027261	293	587976.71119682
2	5036685	294	587976.63324124
2	5043899	295	587976.55579193
2	5052710	296	587976.47798966
2	5062243	297	587976.39990439
2	5069271	298	587976.32240021
2	5076365	299	587976.24482986
2	5081419	300	587976.16767221
2	5088953	301	587976.09014117
2	5097881	302	587976.01231818
2	5108854	303	587975.93416137
2	5114861	304	587975.8568702
2	5124253	305	587975.77894731
2	5129511	306	587975.7017056
2	5137099	307	587975.62410636
2	5143528	308	587975.54671951
2	5150807	309	587975.46913754
2	5157800	310	587975.39156379
2	5162694	311	587975.31451944
2	5174061	312	587975.23606797
2	5188828	313	587975.15728468
2	5196956	314	587975.07961513
2	5204356	315	587975.00207289
2	5210460	316	587974.92468748
2	5216817	317	587974.8472837
2	5221686	318	587974.77021769
2	5233554	319	587974.691787
2	5245491	320	587974.61340867
2	5252858	321	587974.53583014
2	5260254	322	587974.45810294
2	5269129	323	587974.38022486
2	5283405	324	587974.30141834
2	5286376	325	587974.22459287
2	5294417	326	587974.14690528
2	5304610	327	587974.06887653
2	5310048	328	587973.99165077
2	5316013	329	587973.91441151
2	5324279	330	587973.83660791
2	5330836	331	587973.7592293
2	5341383	332	587973.68108534
2	5350051	333	587973.60327204
2	5359547	334	587973.52539051
2	5368505	335	587973.44757479
2	5375025	336	587973.37024074
2	5381525	337	587973.29274921
2	5391670	338	587973.2147601
2	5399360	339	587973.13700584
2	5406205	340	587973.05951082
2	5412854	341	587972.98205809
2	5419221	342	587972.9046431
2	5430736	343	587972.82618619
2	5442171	344	587972.74791791
2	5450409	345	587972.67023253
2	5460669	346	587972.59212274
2	5477160	347	587972.50751236
2	5485004	348	587972.42926254
2	5495930	349	587972.35108961
2	5504621	350	587972.27330225
2	5510712	351	587972.19591277
2	5519884	352	587972.11800747
2	5523755	353	587972.04105082
2	5530857	354	587971.9633712
2	5536460	355	587971.88613722
2	5543748	356	587971.80860146
2	5550423	357	587971.7311832
2	5556166	358	587971.65395028
2	5560967	359	587971.5768378
2	5568055	360	587971.49923144
2	5576621	361	587971.42146003
2	5587420	362	587971.34315384
2	5596539	363	587971.2652321
2	5603359	364	587971.18767479
2	5610929	365	587971.11000404
2	5622785	366	587971.0316199
2	5633998	367	587970.95332197
2	5643410	368	587970.87533975
2	5652494	369	587970.79744409
2	5655272	370	587970.72071154
2	5661695	371	587970.64315112
2	5668778	372	587970.56561667
2	5675885	373	587970.48812087
2	5687508	374	587970.40978339
2	5694281	375	587970.33235451
2	5700648	376	587970.25489137
2	5705290	377	587970.17786097
2	5713913	378	587970.10002781
2	5722261	379	587970.02224835
2	5732487	380	587969.94421515
2	5739294	381	587969.86684344
2	5753888	382	587969.78813085
2	5764679	383	587969.70992912
2	5773641	384	587969.63202356
2	5785339	385	587969.55367824
2	5794030	386	587969.47582996
2	5804571	387	587969.39770498
2	5814884	388	587969.31963448
2	5818495	389	587969.24273339
2	5825265	390	587969.16532015
2	5830102	391	587969.08808733
2	5838486	392	587969.01045897
2	5850039	393	587968.93220755
2	5856944	394	587968.85469108
2	5866402	395	587968.77674372
2	5877436	396	587968.69856314
2	5887504	397	587968.6203066
2	5894463	398	587968.54278354
2	5901534	399	587968.46532056
2	5911498	400	587968.38727641
2	5917319	401	587968.31001622
2	5927886	402	587968.2319107
2	5937884	403	587968.15388721
2	5947762	404	587968.07575031
2	5958267	405	587967.99764758
2	5967084	406	587967.91981421
2	5973635	407	587967.84238624
2	5980052	408	587967.76485955
2	5986017	409	587967.68758535
2	5989290	410	587967.61075103
2	5998527	411	587967.53279769
2	6010514	412	587967.4545653
2	6018858	413	587967.37685818
2	6024233	414	587967.2996242
2	6029639	415	587967.22239852
2	6036646	416	587967.14487032
2	6041572	417	587967.06767874
2	6052382	418	587966.98945834
2	6063521	419	587966.91126151
2	6076667	420	587966.82796248
2	6085464	421	587966.74891231
2	6094689	422	587966.6711005
2	6104100	423	587966.593154
2	6113076	424	587966.51534166
2	6122327	425	587966.43741769
2	6127808	426	587966.36025673
2	6136206	427	587966.28252672
2	6150559	428	587966.19945948
2	6162234	429	587966.11941489
2	6175271	430	587966.04083223
2	6181336	431	587965.96351885
2	6191198	432	587965.88549774
2	6198525	433	587965.80794426
2	6205706	434	587965.73032545
2	6212550	435	587965.65284668
2	6222452	436	587965.57486266
2	6226919	437	587965.49781454
2	6230837	438	587965.42091258
2	6239714	439	587965.34316364
2	6246490	440	587965.26567951
2	6252524	441	587965.18829109
2	6260065	442	587965.11072587
2	6268345	443	587965.03306944
2	6278343	444	587964.95491598
2	6284499	445	587964.87747164
2	6293477	446	587964.79965451
2	6300760	447	587964.72206878
2	6313335	448	587964.64363676
2	6318401	449	587964.56655597
2	6327669	450	587964.48865715
2	6335010	451	587964.40827084
2	6350407	452	587964.32929909
2	6354170	453	587964.25242653
2	6361306	454	587964.17484304
2	6366881	455	587964.0976188
2	6377740	456	587964.01951488
2	6385753	457	587963.94182442
2	6394272	458	587963.86403872
2	6402229	459	587963.7862932
2	6409621	460	587963.70872767
2	6420287	461	587963.63049347
2	6430041	462	587963.55247472
2	6435526	463	587963.4752793
2	6446016	464	587963.39707499
2	6454103	465	587963.3194441
2	6462992	466	587963.24149895
2	6470661	467	587963.16390376
2	6475354	468	587963.0868852
2	6482859	469	587963.0092986
2	6489390	470	587962.93187116
2	6494744	471	587962.85464844
2	6503214	472	587962.77680968
2	6508992	473	587962.69954126
2	6514473	474	587962.6223155
2	6521934	475	587962.54457186
2	6527304	476	587962.46740655
2	6534666	477	587962.38987101
2	6542020	478	587962.31228868
2	6551864	479	587962.23423963
2	6559596	480	587962.15666476
2	6567093	481	587962.07912281
2	6573904	482	587962.00174802
2	6581525	483	587961.92428281
2	6588993	484	587961.84597097
2	6606490	485	587961.76138392
2	6615099	486	587961.6836332
2	6624431	487	587961.60584864
2	6634983	488	587961.52793263
2	6656343	489	587961.43967549
2	6672802	490	587961.35260891
2	6689996	491	587961.25852747
2	6708177	492	587961.16864272
2	6728275	493	587961.08131742
2	6744254	494	587960.98800579
2	6760569	495	587960.89915199
2	6776291	496	587960.81007882
2	6790782	497	587960.72134871
2	6803114	498	587960.63343187
2	6819455	499	587960.54817329
2	6827461	500	587960.47041462
2	6832025	501	587960.39331981
2	6838868	502	587960.31583647
2	6843668	503	587960.23879421
2	6847862	504	587960.16171825
2	6855106	505	587960.08415636
2	6859889	506	587960.00702863
2	6867908	507	587959.92927652
2	6874758	508	587959.85172528
2	6881408	509	587959.77422579
2	6887351	510	587959.69675875
2	6892119	511	587959.61959617
2	6900780	512	587959.54186897
2	6904019	513	587959.46505993
2	6909240	514	587959.38777366
2	6916921	515	587959.31021635
2	6924112	516	587959.23263344
2	6930043	517	587959.15522262
2	6933348	518	587959.07835274
2	6936101	519	587959.00162431
2	6947773	520	587958.92326635
2	6955366	521	587958.84563149
2	6968889	522	587958.76723648
2	6979769	523	587958.68918777
2	6989807	524	587958.6113022
2	6993454	525	587958.53440799
2	6999646	526	587958.45699578
2	7010717	527	587958.3788617
2	7017342	528	587958.30148708
2	7022145	529	587958.22439954
2	7029830	530	587958.14673002
2	7033592	531	587958.06979504
2	7047362	532	587957.99146223
2	7055251	533	587957.913862
2	7064551	534	587957.83610742
2	7071327	535	587957.75873746
2	7079906	536	587957.68114188
2	7092264	537	587957.60129104
2	7107004	538	587957.51194054
2	7126072	539	587957.41945537
2	7141773	540	587957.33008738
2	7156007	541	587957.24294727
2	7172614	542	587957.1559504
2	7192514	543	587957.05816575
2	7207473	544	587956.96923123
2	7220820	545	587956.88151264
2	7231453	546	587956.79429732
2	7254395	547	587956.70356057
2	7272855	548	587956.61320146
2	7287827	549	587956.52747446
2	7303670	550	587956.43642745
2	7325216	551	587956.33918029
2	7350029	552	587956.24451011
2	7365688	553	587956.15626152
2	7385908	554	587956.06650025
2	7402625	555	587955.97723204
2	7422942	556	587955.88898981
2	7427517	557	587955.81192263
2	7434715	558	587955.73431513
2	7439020	559	587955.65728225
2	7446820	560	587955.5796215
2	7452145	561	587955.5024673
2	7457832	562	587955.42525431
2	7462027	563	587955.34822919
2	7465664	564	587955.27132769
2	7471459	565	587955.19413406
2	7487398	566	587955.11542643
2	7492436	567	587955.03822232
2	7513414	568	587954.95071432
2	7527236	569	587954.86290688
2	7542754	570	587954.77553953
2	7553764	571	587954.68799514
2	7570570	572	587954.59830016
2	7592802	573	587954.50538694
2	7610564	574	587954.41577302
2	7625009	575	587954.32927673
2	7642164	576	587954.23835028
2	7665379	577	587954.14151046
2	7686472	578	587954.04930234
2	7708630	579	587953.95775237
2	7726699	580	587953.86700749
2	7743776	581	587953.77973217
2	7763108	582	587953.68898472
2	7777184	583	587953.6023354
2	7787526	584	587953.52446444
2	7798156	585	587953.44659514
2	7816042	586	587953.36369413
2	7824833	587	587953.28386926
2	7836030	588	587953.20585128
2	7839368	589	587953.12904698
2	7846724	590	587953.05155857
2	7866425	591	587952.9607697
2	7882481	592	587952.87275825
2	7903815	593	587952.78666138
2	7912144	594	587952.70901732
2	7918857	595	587952.63162113
2	7928991	596	587952.55382039
2	7948401	597	587952.46857262
2	7952796	598	587952.39151675
2	7964068	599	587952.3134275
2	7970033	600	587952.23609607
2	7972297	601	587952.15942596
2	7981114	602	587952.08186185
2	7987198	603	587952.00449389
2	7989698	604	587951.92778601
2	7993289	605	587951.85090002
2	7998076	606	587951.7737687
2	8005714	607	587951.696307
2	8010138	608	587951.61924962
2	8024285	609	587951.53955803
2	8036047	610	587951.45668404
2	8042243	611	587951.37947895
2	8048267	612	587951.30222297
2	8054452	613	587951.22493846
2	8064000	614	587951.14728603
2	8069262	615	587951.07008871
2	8076191	616	587950.99254144
2	8083651	617	587950.91489546
2	8092465	618	587950.83727059
2	8099189	619	587950.75975836
2	8103692	620	587950.68264918
2	8107436	621	587950.60573005
2	8114838	622	587950.52838832
2	8119836	623	587950.45125057
2	8127833	624	587950.37381413
2	8133465	625	587950.29653723
2	8142546	626	587950.21894259
2	8149020	627	587950.14154694
2	8164971	628	587950.05838307
2	8169943	629	587949.98116553
2	8185906	630	587949.90241301
2	8192721	631	587949.82493954
2	8196734	632	587949.74797411
2	8200552	633	587949.6710799
2	8208246	634	587949.59345101
2	8214207	635	587949.5162485
2	8229424	636	587949.43777694
2	8236934	637	587949.36021141
2	8250079	638	587949.281984
2	8260308	639	587949.20420809
2	8271884	640	587949.12618844
2	8278551	641	587949.04887387
2	8283401	642	587948.97168695
2	8289218	643	587948.89430715
2	8294458	644	587948.81705137
2	8299303	645	587948.73991779
2	8303075	646	587948.66293962
2	8306724	647	587948.58606185
2	8311000	648	587948.50899775
2	8316204	649	587948.43177199
2	8320192	650	587948.35473792
2	8324951	651	587948.27764294
2	8334880	652	587948.19954562
2	8345358	653	587948.12137509
2	8350477	654	587948.04411805
2	8356972	655	587947.96666778
2	8362234	656	587947.88948181
2	8369232	657	587947.8119245
2	8374083	658	587947.73483621
2	8377508	659	587947.65799086
2	8382697	660	587947.58078101
2	8388001	661	587947.50353801
2	8392085	662	587947.42649168
2	8395619	663	587947.34958103
2	8403503	664	587947.27194544
2	8408528	665	587947.19480618
2	8414226	666	587947.11756022
2	8420230	667	587947.04010037
2	8424104	668	587946.9630458
2	8429071	669	587946.88600075
2	8442350	670	587946.8075798
2	8446771	671	587946.73053659
2	8451751	672	587946.65331083
2	8465522	673	587946.57505788
2	8484079	674	587946.4852507
2	8501076	675	587946.3998202
2	8504541	676	587946.32292599
2	8507039	677	587946.24621811
2	8514329	678	587946.16866855
2	8521852	679	587946.09112739
2	8529192	680	587946.01384311
2	8541705	681	587945.93547989
2	8554462	682	587945.85272681
2	8558228	683	587945.7758326
2	8563500	684	587945.69863898
2	8568999	685	587945.62138711
2	8577013	686	587945.54394969
2	8588532	687	587945.46596117
2	8590746	688	587945.38933562
2	8604270	689	587945.30731153
2	8620927	690	587945.22034498
2	8628299	691	587945.14285184
2	8630456	692	587945.06622032
2	8638073	693	587944.98857403
2	8645110	694	587944.91112738
2	8653795	695	587944.83329251
2	8666655	696	587944.75503061
2	8671168	697	587944.6780214
2	8679065	698	587944.59579383
2	8682655	699	587944.51889508
2	8695320	700	587944.44050656
2	8699612	701	587944.36350804
2	8705845	702	587944.28613594
2	8713523	703	587944.20847868
2	8733337	704	587944.12929663
2	8746113	705	587944.05091098
2	8761046	706	587943.97259045
2	8766787	707	587943.89537358
2	8782329	708	587943.81687603
2	8786640	709	587943.73980038
2	8794349	710	587943.66220201
2	8805108	711	587943.58427398
2	8810486	712	587943.50704
2	8814862	713	587943.43002236
2	8826854	714	587943.34777994
2	8841911	715	587943.26061714
2	8852887	716	587943.17849984
2	8858646	717	587943.1012579
2	8862295	718	587943.02436369
2	8876302	719	587942.94402326
2	8889917	720	587942.86252366
2	8900992	721	587942.78447798
2	8910027	722	587942.70688464
2	8921302	723	587942.62892313
2	8929570	724	587942.5511845
2	8932658	725	587942.47437756
2	8936082	726	587942.39756352
2	8949400	727	587942.31927194
2	8953425	728	587942.24231975
2	8958356	729	587942.16515219
2	8973533	730	587942.08518313
2	8981550	731	587942.00325635
2	8988774	732	587941.92589781
2	8993114	733	587941.84883372
2	9000119	734	587941.77135257
2	9004322	735	587941.69437906
2	9017110	736	587941.61611562
2	9027571	737	587941.53798304
2	9033355	738	587941.46068653
2	9042379	739	587941.38307478
2	9048127	740	587941.30579055
2	9050740	741	587941.22908267
2	9055842	742	587941.15186502
2	9059092	743	587941.07504353
2	9062112	744	587940.9982772
2	9077484	745	587940.91979839
2	9087409	746	587940.84094198
2	9102284	747	587940.74880493
2	9120813	748	587940.66092962
2	9136512	749	587940.57693234
2	9156196	750	587940.48408394
2	9170034	751	587940.39481437
2	9184683	752	587940.30329093
2	9207604	753	587940.20528419
2	9225073	754	587940.11442576
2	9244253	755	587940.01476756
2	9261345	756	587939.9267233
2	9273745	757	587939.83934534
2	9287987	758	587939.7515472
2	9298208	759	587939.66383508
2	9313223	760	587939.57651971
2	9327944	761	587939.49455915
2	9337433	762	587939.41687045
2	9352979	763	587939.33827469
2	9359085	764	587939.26093134
2	9362484	765	587939.18402308
2	9374275	766	587939.10594387
2	9379864	767	587939.02868067
2	9384927	768	587938.95146131
2	9391933	769	587938.87417141
2	9398527	770	587938.79678552
2	9403093	771	587938.71970885
2	9409589	772	587938.64222161
2	9423372	773	587938.56404425
2	9434478	774	587938.48606315
2	9449800	775	587938.40756805
2	9455710	776	587938.33029537
2	9468054	777	587938.25207031
2	9472453	778	587938.17501443
2	9479755	779	587938.09739409
2	9490472	780	587938.01955797
2	9501653	781	587937.93676272
2	9517098	782	587937.84828006
2	9534205	783	587937.76010818
2	9553577	784	587937.67135782
2	9571073	785	587937.5838199
2	9586720	786	587937.49873848
2	9596894	787	587937.41802979
2	9601212	788	587937.34098664
2	9608616	789	587937.26339195
2	9614060	790	587937.18605695
2	9617878	791	587937.10911031
2	9620432	792	587937.03239421
2	9626492	793	587936.95499856
2	9630081	794	587936.87811257
2	9633790	795	587936.80122612
2	9640947	796	587936.72364461
2	9643821	797	587936.64685785
2	9649623	798	587936.56954108
2	9654209	799	587936.49242714
2	9658306	800	587936.41542933
2	9660806	801	587936.33872145
2	9665824	802	587936.26151727
2	9669835	803	587936.18444803
2	9674460	804	587936.10739216
2	9677244	805	587936.03067605
2	9681307	806	587935.95364068
2	9684111	807	587935.87683852
2	9687987	808	587935.79988704
2	9689829	809	587935.72329349
2	9695411	810	587935.64604546
2	9699713	811	587935.56899782
2	9706773	812	587935.4915049
2	9710254	813	587935.41461891
2	9725829	814	587935.33182052
2	9746339	815	587935.2380783
2	9770295	816	587935.14770048
2	9788385	817	587935.0596656
2	9801339	818	587934.97153068
2	9819239	819	587934.8873157
2	9832978	820	587934.80907275
2	9839077	821	587934.73170772
2	9843881	822	587934.65461276
2	9855728	823	587934.5765031
2	9865143	824	587934.4985366
2	9871453	825	587934.42116493
2	9878362	826	587934.34354651
2	9890243	827	587934.26553953
2	9901863	828	587934.18761327
2	9906207	829	587934.11061726
2	9909567	830	587934.03373277
2	9917731	831	587933.95630412
2	9928359	832	587933.87838616
2	9935320	833	587933.80087293
2	9941712	834	587933.72348712
2	9949282	835	587933.64595223
2	9964828	836	587933.56016931
2	9978107	837	587933.47825098
2	9985257	838	587933.40065006
2	9991805	839	587933.32320303
2	9997132	840	587933.24606759
2	10003567	841	587933.16876618
2	10010353	842	587933.09122557
2	10014570	843	587933.01421798
2	10020096	844	587932.93698564
2	10024227	845	587932.86001459
2	10034894	846	587932.78216099
2	10040769	847	587932.70506109
2	10047748	848	587932.62750304
2	10065734	849	587932.54853899
2	10076020	850	587932.47074328
2	10084477	851	587932.39326805
2	10089444	852	587932.31607899
2	10100106	853	587932.23823809
2	10102524	854	587932.16158336
2	10108899	855	587932.08426032
2	10113487	856	587932.00720906
2	10121445	857	587931.92964228
2	10129858	858	587931.85196701
2	10132412	859	587931.7752509
2	10136503	860	587931.69832887
2	10138399	861	587931.62174381
2	10144281	862	587931.54450075
2	10152000	863	587931.46689408
2	10162896	864	587931.38842619
2	10181129	865	587931.29721061
2	10198615	866	587931.20735637
2	10210169	867	587931.12041431
2	10226601	868	587931.03321614
2	10246059	869	587930.94109428
2	10268764	870	587930.84654662
2	10286246	871	587930.75929102
2	10299298	872	587930.67416996
2	10310271	873	587930.59613093
2	10320278	874	587930.51825001
2	10329891	875	587930.43448055
2	10342823	876	587930.35629727
2	10350139	877	587930.2788758
2	10354343	878	587930.20190519
2	10357107	879	587930.12515714
2	10361096	880	587930.04822993
2	10365590	881	587929.97118349
2	10370066	882	587929.89417088
2	10373868	883	587929.81729913
2	10376213	884	587929.74065628
2	10385099	885	587929.66269339
2	10389856	886	587929.58558408
2	10398113	887	587929.50786649
2	10402488	888	587929.43088127
2	10407698	889	587929.35365551
2	10412639	890	587929.27646799
2	10416358	891	587929.19957576
2	10418914	892	587929.12285966
2	10424011	893	587929.0456339
2	10433670	894	587928.96784075
2	10443361	895	587928.89008254
2	10452860	896	587928.81233985
2	10464785	897	587928.73420121
2	10481057	898	587928.65552388
2	10488563	899	587928.57791313
2	10494204	900	587928.50064098
2	10497851	901	587928.42374677
2	10509242	902	587928.34574082
2	10512705	903	587928.26886908
2	10522960	904	587928.19098382
2	10530625	905	587928.11360046
2	10539028	906	587928.03585863
2	10550010	907	587927.9579221
2	10551700	908	587927.88136766
2	10554097	909	587927.8047131
2	10568456	910	587927.72505923
2	10576256	911	587927.64288098
2	10582443	912	587927.56559776
2	10588782	913	587927.48819436
2	10602929	914	587927.40983878
2	10606279	915	587927.33304358
2	10615961	916	587927.25534285
2	10617652	917	587927.17878841
2	10627469	918	587927.10106247
2	10633963	919	587927.02387693
2	10640664	920	587926.9466971
2	10654146	921	587926.86788825
2	10671285	922	587926.78001671
2	10685538	923	587926.69287075
2	10704405	924	587926.60164223
2	10720079	925	587926.51357738
2	10736795	926	587926.4218929
2	10757285	927	587926.32925537
2	10776022	928	587926.24225752
2	10788759	929	587926.15501213
2	10804420	930	587926.06803334
2	10820050	931	587925.97987055
2	10832325	932	587925.89359534
2	10846216	933	587925.80601867
2	10851565	934	587925.72884178
2	10856190	935	587925.6517859
2	10860406	936	587925.57489991
2	10863508	937	587925.49806718
2	10865689	938	587925.42139506
2	10870792	939	587925.34414892
2	10879166	940	587925.26635308
2	10883510	941	587925.18930542
2	10886431	942	587925.11251831
2	10890873	943	587925.03535534
2	10896414	944	587924.95812958
2	10901961	945	587924.88088738
2	10903538	946	587924.80434938
2	10908310	947	587924.72720771
2	10914017	948	587924.64991383
2	10917428	949	587924.57302784
2	10921019	950	587924.49614185
2	10925250	951	587924.4190942
2	10927569	952	587924.34238631
2	10935512	953	587924.26468251
2	10940979	954	587924.18742876
2	10944652	955	587924.11054277
2	10947377	956	587924.03381845
2	10950594	957	587923.95696982
2	10959301	958	587923.87940354
2	10964493	959	587923.80227338
2	10969975	960	587923.72501609
2	10974583	961	587923.64795231
2	10981393	962	587923.57054023
2	10987420	963	587923.49326959
2	10990302	964	587923.41648574
2	10995145	965	587923.33948912
2	11004991	966	587923.26184526
2	11007823	967	587923.18507894
2	11010433	968	587923.10835461
2	11013856	969	587923.03147684
2	11016356	970	587922.95475252
2	11031308	971	587922.87627001
2	11047424	972	587922.78716776
2	11060741	973	587922.69942369
2	11074520	974	587922.6067623
2	11085362	975	587922.52247088
2	11094294	976	587922.44464933
2	11098181	977	587922.36775638
2	11107835	978	587922.29007508
2	11116792	979	587922.21237402
2	11122205	980	587922.13510565
2	11133381	981	587922.05715287
2	11142446	982	587921.9795385
2	11148407	983	587921.90226695
2	11154083	984	587921.8248713
2	11157101	985	587921.74810448
2	11173221	986	587921.66668196