version 2
run General-0-20140630-02:06:59-28238
attr configname General
attr datetime 20140630-02:06:59
attr experiment General
attr inifile omnetpp.ini
attr iterationvars ""
attr iterationvars2 $repetition=0
attr measurement ""
attr network WSN
attr processid 28238
attr repetition 0
attr replication #0
attr resultdir results
attr runnumber 0
attr seedset 0

vector 3  WSN.statistic  sensorEnergy:vector  ETV
attr title  "Sensor energy, vector"
vector 4  WSN.statistic  sensorEnergyLevel:vector  ETV
attr title  "Sensor energy (level), vector"
3	16652824	3540	3.1603109823054
3	16652824	3540	3.1598478208379
3	16652824	3540	3.1586419648605
3	16652824	3540	3.1605729697614
3	16652824	3540	3.1664133166097
3	16652824	3540	3.1601775953624
3	16652824	3540	3.1600721482628
3	16652824	3540	3.1626936469312
3	16652824	3540	3.1533734173358
3	16652824	3540	3.1524045949278
3	16652824	3540	3.153570638951
3	16652824	3540	3.1547096095794
3	16652824	3540	3.1601363628048
3	16652824	3540	3.159110691587
3	16652824	3540	3.1590271553887
3	16652824	3540	3.1605639569103
3	16652824	3540	3.159785049671
3	16652824	3540	3.159840660105
3	16652824	3540	3.1598426395549
3	16652824	3540	3.1554375937344
3	16652824	3540	3.1527317257345
3	16652824	3540	3.154120235229
3	16652824	3540	3.1539464709789
3	16652824	3540	3.1545781436285
3	16652824	3540	3.1996589959166
3	16652824	3540	3.1516332119589
3	16652824	3540	3.1516593428627
3	16652824	3540	3.150501229524
3	16652824	3540	3.140676850161
3	16652824	3540	3.150636976125
3	16652824	3540	3.1377262395663
3	16652824	3540	3.1504840106072
3	16652824	3540	3.1537500380147
3	16652824	3540	3.1541561750707
3	16652824	3540	3.1546888818788
3	16652824	3540	3.1599179973532
3	16652824	3540	3.1521695147584
3	16652824	3540	3.1517845443122
3	16652824	3540	3.1496232214552
3	16652824	3540	3.1399111817415
3	16652824	3540	3.1485975431685
3	16652824	3540	3.149170439008
3	16652824	3540	3.1506806845577
3	16652824	3540	3.1368470454656
3	16652824	3540	3.1414321401884
3	16652824	3540	3.1450279719208
3	16652824	3540	3.1526670451204
3	16652824	3540	3.1596874076529
3	16652824	3540	3.169445515037
3	16652824	3540	3.1506185796378
3	16652824	3540	3.1474155110724
3	16652824	3540	3.1467357918897
3	16652824	3540	3.1587400874196
3	16652824	3540	3.1486970046792
3	16652824	3540	3.1506829080805
3	16652824	3540	3.1468169495473
3	16652824	3540	3.1614224841108
3	16652824	3540	3.1463422095097
3	16652824	3540	3.1543666549331
3	16652824	3540	3.2000025452548
3	16652824	3540	3.1630786286808
3	16652824	3540	3.1511453806399
3	16652824	3540	3.1495289250214
3	16652824	3540	3.1463821054521
3	16652824	3540	3.1587447141383
3	16652824	3540	3.1498030479139
3	16652824	3540	3.1513560482611
3	16652824	3540	3.1578359513629
3	16652824	3540	3.1630099879383
3	16652824	3540	3.1524136918357
3	16652824	3540	3.1486578177372
3	16652824	3540	3.1601478952499
3	16652824	3540	3.1630627865936
3	16652824	3540	3.1522411121575
3	16652824	3540	3.1481802409926
3	16652824	3540	3.1492365132886
3	16652824	3540	3.1596990738105
3	16652824	3540	3.151371062364
3	16652824	3540	3.1503286594639
3	16652824	3540	3.1516005410049
3	16652824	3540	3.1630944676565
3	16652824	3540	3.1593417995535
3	16652824	3540	3.1564536998013
3	16652824	3540	3.1606750738025
3	16652824	3540	3.1593837585272
3	16652824	3540	3.1519883311649
3	16652824	3540	3.1491815793082
3	16652824	3540	3.1505180247636
3	16652824	3540	3.1630786275047
3	16652824	3540	3.1540180502953
3	16652824	3540	3.1526875533035
3	16652824	3540	3.1519111927958
3	16652824	3540	3.1632475888858
3	16652824	3540	3.159106069553
3	16652824	3540	3.1594380138025
3	16652824	3540	3.1593928533025
3	16652824	3540	3.1593837585281
3	16652824	3540	3.1510177665148
3	16652824	3540	3.1505882957146
3	16652824	3540	3.1564416891381
3	16652824	3540	3.163036386036
3	16652824	3540	3.1532608658444
3	16652824	3540	3.153694771844
3	16652824	3540	3.152869510442
3	16652824	3540	3.1630522279603
3	16652824	3540	3.1642232488964
3	16652824	3540	3.1597635575884
3	16652824	3540	3.1590312512905
3	16652824	3540	3.1629519075745
3	16652824	3540	3.1514563126287
3	16652824	3540	3.1566610442925
3	16652824	3540	3.1577775211927
3	16652824	3540	3.1631103095903
3	16652824	3540	3.1544346669842
3	16652824	3540	3.1532429065395
3	16652824	3540	3.1533991968348
3	16652824	3540	3.1631050274468
3	16652824	3540	3.163829310296
3	16652824	3540	3.1606773908293
3	16652824	3540	3.1601092093494
3	16652824	3540	3.1630839064381
3	16652824	3540	3.1632211047849
3	16652824	3540	3.1577651008307
3	16652824	3540	3.1580089504803
3	16652824	3540	3.1631261459861
3	16652824	3540	3.1536995177338
3	16652824	3540	3.154116807133
3	16652824	3540	3.154159737216
3	16652824	3540	3.1631103085474
3	16652824	3540	3.1604610992627
3	16652824	3540	3.1608082396787
3	16652824	3540	3.1602309305298
3	16652824	3540	3.1630680668239
3	16652824	3540	3.1722210051255
3	16652824	3540	3.1635770136344
3	16652824	3540	3.1637774759846
3	16652824	3540	3.1630733465431
3	16652824	3540	3.1593550404815
3	16652824	3540	3.154370487316
3	16652824	3540	3.1547876854156
3	16652824	3540	3.1630469480721
3	16652824	3540	3.1643832583908
3	16652824	3540	3.1610054535112
3	16652824	3540	3.1855750695635
4	16652824	3540	35
4	16652824	3540	35
4	16652824	3540	35
4	16652824	3540	35
4	16652824	3540	35
4	16652824	3540	35
4	16652824	3540	35
4	16652824	3540	35
4	16652824	3540	35
4	16652824	3540	35
4	16652824	3540	35
4	16652824	3540	35
4	16652824	3540	35
4	16652824	3540	35
4	16652824	3540	35
4	16652824	3540	35
4	16652824	3540	35
4	16652824	3540	35
4	16652824	3540	35
4	16652824	3540	35
4	16652824	3540	35
4	16652824	3540	35
4	16652824	3540	35
4	16652824	3540	35
4	16652824	3540	35
4	16652824	3540	35
4	16652824	3540	35
4	16652824	3540	35
4	16652824	3540	34
4	16652824	3540	35
4	16652824	3540	34
4	16652824	3540	35
4	16652824	3540	35
4	16652824	3540	35
4	16652824	3540	35
4	16652824	3540	35
4	16652824	3540	35
4	16652824	3540	35
4	16652824	3540	34
4	16652824	3540	34
4	16652824	3540	34
4	16652824	3540	34
4	16652824	3540	35
4	16652824	3540	34
4	16652824	3540	34
4	16652824	3540	34
4	16652824	3540	35
4	16652824	3540	35
4	16652824	3540	35
4	16652824	3540	35
4	16652824	3540	34
4	16652824	3540	34
4	16652824	3540	35
4	16652824	3540	34
4	16652824	3540	35
4	16652824	3540	34
4	16652824	3540	35
4	16652824	3540	34
4	16652824	3540	35
4	16652824	3540	35
4	16652824	3540	35
4	16652824	3540	35
4	16652824	3540	34
4	16652824	3540	34
4	16652824	3540	35
4	16652824	3540	34
4	16652824	3540	35
4	16652824	3540	35
4	16652824	3540	35
4	16652824	3540	35
4	16652824	3540	34
4	16652824	3540	35
4	16652824	3540	35
4	16652824	3540	35
4	16652824	3540	34
4	16652824	3540	34
4	16652824	3540	35
4	16652824	3540	35
4	16652824	3540	35
4	16652824	3540	35
4	16652824	3540	35
4	16652824	3540	35
4	16652824	3540	35
4	16652824	3540	35
4	16652824	3540	35
4	16652824	3540	35
4	16652824	3540	34
4	16652824	3540	35
4	16652824	3540	35
4	16652824	3540	35
4	16652824	3540	35
4	16652824	3540	35
4	16652824	3540	35
4	16652824	3540	35
4	16652824	3540	35
4	16652824	3540	35
4	16652824	3540	35
4	16652824	3540	35
4	16652824	3540	35
4	16652824	3540	35
4	16652824	3540	35
4	16652824	3540	35
4	16652824	3540	35
4	16652824	3540	35
4	16652824	3540	35
4	16652824	3540	35
4	16652824	3540	35
4	16652824	3540	35
4	16652824	3540	35
4	16652824	3540	35
4	16652824	3540	35
4	16652824	3540	35
4	16652824	3540	35
4	16652824	3540	35
4	16652824	3540	35
4	16652824	3540	35
4	16652824	3540	35
4	16652824	3540	35
4	16652824	3540	35
4	16652824	3540	35
4	16652824	3540	35
4	16652824	3540	35
4	16652824	3540	35
4	16652824	3540	35
4	16652824	3540	35
4	16652824	3540	35
4	16652824	3540	35
4	16652824	3540	35
4	16652824	3540	35
4	16652824	3540	35
4	16652824	3540	35
4	16652824	3540	35
4	16652824	3540	35
4	16652824	3540	35
4	16652824	3540	35
4	16652824	3540	35
4	16652824	3540	35
4	16652824	3540	35
4	16652824	3540	35
4	16652824	3540	35
4	16652824	3540	35
4	16652824	3540	35
4	16652824	3540	35
4	16652824	3540	35
