version 2
run General-0-20140519-09:41:14-5443
attr configname General
attr datetime 20140519-09:41:14
attr experiment General
attr inifile omnetpp.ini
attr iterationvars ""
attr iterationvars2 $repetition=0
attr measurement ""
attr network WSN
attr processid 5443
attr repetition 0
attr replication #0
attr resultdir results
attr runnumber 0
attr seedset 0

vector 2  WSN.statistic  networkEnergy:vector  ETV
attr title  "Node energy, vector"
vector 3  WSN.statistic  sensorEnergy:vector  ETV
attr title  "Sensor energy, vector"
2	198	0	2352
2	1578	1	2351.923462
2	3155	2	2351.846924
2	4820	3	2351.770386
2	7006	4	2351.693848
2	8595	5	2351.61731
2	10172	6	2351.540772
2	12843	7	2351.4640641148
2	15435	8	2351.3873562295
2	17629	9	2351.310670694
2	20832	10	2351.2337705739
2	26542	11	2351.156553033
2	28860	12	2351.0798451477
2	34305	13	2351.0025279028
2	41144	14	2350.9250886525
2	49333	15	2350.8472677617
2	55861	16	2350.7697729727
2	66677	17	2350.6915314062
2	78891	18	2350.6130960944
2	90187	19	2350.5346819001
2	103166	20	2350.4560285828
2	123905	21	2350.3759591817
2	133849	22	2350.2979476511
2	151195	23	2350.2184322238
2	174790	24	2350.1378090273
2	195884	25	2350.0578360439
2	217720	26	2349.977565672
2	242874	27	2349.896583004
2	276087	28	2349.8142012587
2	298469	29	2349.7337995147
2	328727	30	2349.6520225623
2	354998	31	2349.5707957924
2	393924	32	2349.4873616716
2	416376	33	2349.4070192948
2	453150	34	2349.3239861446
2	495600	35	2349.2397635645
2	517100	36	2349.1595429591
2	559396	37	2349.0753291328
2	593228	38	2348.99305405
2	635752	39	2348.9088481479
2	666751	40	2348.8268082345
2	707478	41	2348.7431236363
2	744430	42	2348.6600726088
2	787699	43	2348.5756868829
2	824575	44	2348.4927492419
2	865889	45	2348.4088824646
2	903459	46	2348.3255097815
2	944159	47	2348.2419020959
2	975641	48	2348.1598375515
2	1021273	49	2348.0749429505
2	1062812	50	2347.9910225949
2	1094674	51	2347.9090087149
2	1130188	52	2347.8261299604
2	1171132	53	2347.7422076021
2	1206630	54	2347.6592196575
2	1236988	55	2347.5775330349
2	1272637	56	2347.4945299577
2	1304498	57	2347.4123061919
2	1340749	58	2347.329407986
2	1367653	59	2347.2481153964
2	1403557	60	2347.1653068991
2	1437220	61	2347.0825941791
2	1470909	62	2347.00011357
2	1496659	63	2346.9191643347
2	1530117	64	2346.83673748
2	1558842	65	2346.7552479763
2	1585705	66	2346.67425569
2	1613023	67	2346.5928292432
2	1641310	68	2346.5112314053
2	1667253	69	2346.4303024725
2	1692392	70	2346.3494537915
2	1720693	71	2346.2679417073
2	1748140	72	2346.1865829486
2	1769253	73	2346.1064976889
2	1798340	74	2346.0249586542
2	1822997	75	2345.9440891669
2	1840625	76	2345.8645467229
2	1861734	77	2345.7843807494
2	1892428	78	2345.7025110145
2	1919991	79	2345.6211526803
2	1942727	80	2345.5407820373
2	1964092	81	2345.4606763423
2	1998718	82	2345.3778885195
2	2019678	83	2345.2976439984
2	2041599	84	2345.2173696727
2	2066013	85	2345.1367874298
2	2092850	86	2345.0555609299
2	2120126	87	2344.974299204
2	2145919	88	2344.893261478
2	2174412	89	2344.8115186037
2	2200718	90	2344.7303660327
2	2225223	91	2344.6498121684
2	2245155	92	2344.5699336238
2	2269564	93	2344.4892971496
2	2293408	94	2344.4085239711
2	2329581	95	2344.3200935466
2	2353392	96	2344.2391155109
2	2375764	97	2344.1588215047
2	2398472	98	2344.0784193342
2	2422930	99	2343.9975385962
2	2452147	100	2343.9160308432
2	2473546	101	2343.8357628137
2	2496977	102	2343.7553308214
2	2525804	103	2343.6737865934
2	2550601	104	2343.5929427886
2	2579973	105	2343.5113654506
2	2594906	106	2343.4324631467
2	2625779	107	2343.350531018
2	2652305	108	2343.2695070494
2	2672950	109	2343.1895203886
2	2691133	110	2343.1099008175
2	2716693	111	2343.0290612306
2	2738209	112	2342.9488820924
2	2761040	113	2342.8684212267
2	2785737	114	2342.7876172493
2	2803143	115	2342.7082410855
2	2821187	116	2342.6286201821
2	2835383	117	2342.5497999021
2	2855715	118	2342.4698865839
2	2883636	119	2342.3884962261
2	2902585	120	2342.3087546715
2	2916917	121	2342.2298958308
2	2932161	122	2342.1508678688
2	2948555	123	2342.0717012607
2	2967905	124	2341.9919584488
2	2987229	125	2341.9122800932
2	3002554	126	2341.8332444251
2	3023284	127	2341.7530630361
2	3038132	128	2341.6740901959
2	3055562	129	2341.594643474
2	3068655	130	2341.5161562559
2	3079686	131	2341.4379646667
2	3103307	132	2341.3574863985
2	3118489	133	2341.2784921624
2	3133272	134	2341.1995193649
2	3146534	135	2341.1208209698
2	3166275	136	2341.0410937911
2	3177937	137	2340.9627721014
2	3196150	138	2340.8832575877
2	3207005	139	2340.8050747417
2	3219150	140	2340.7266257039
2	3236751	141	2340.6472636636
2	3253139	142	2340.5678859346
2	3270556	143	2340.4885493096
2	3291179	144	2340.405158193
2	3305550	145	2340.3238931895
2	3317501	146	2340.2455089039
2	3334100	147	2340.1662493485
2	3350203	148	2340.0870286369
2	3363993	149	2340.0082141537
2	3377740	150	2339.9297496116
2	3387839	151	2339.8516865442
2	3405687	152	2339.7721931519
2	3424605	153	2339.6923863728
2	3442040	154	2339.6130146502
2	3454035	155	2339.5347629802
2	3467323	156	2339.4561217271
2	3485722	157	2339.3764832293
2	3505116	158	2339.296781166
2	3517012	159	2339.218517861
2	3537460	160	2339.1384788655
2	3557042	161	2339.0581101518
2	3576587	162	2338.9745037493
2	3592570	163	2338.8954084657
2	3607020	164	2338.8165676887
2	3620066	165	2338.7379019609
2	3634584	166	2338.6590759233
2	3643414	167	2338.5812575823
2	3662942	168	2338.5014266226
2	3683807	169	2338.4214974044
2	3692237	170	2338.3437019301
2	3706841	171	2338.2647690439
2	3725629	172	2338.1851013056
2	3743430	173	2338.1056496262
2	3758537	174	2338.0267217336
2	3773888	175	2337.9477415923
2	3791422	176	2337.8681103802
2	3813615	177	2337.7819552787
2	3826826	178	2337.703198298
2	3844152	179	2337.6237411085
2	3857673	180	2337.5449691439
2	3876387	181	2337.4652794768
2	3890796	182	2337.3865104175
2	3902360	183	2337.3081997588
2	3912378	184	2337.2300919869
2	3930866	185	2337.1505365263
2	3946415	186	2337.0715843401
2	3965002	187	2336.9918944067
2	3985864	188	2336.9118434122
2	4002357	189	2336.8326288343
2	4020934	190	2336.7529258719
2	4036344	191	2336.673918034
2	4050713	192	2336.5950915761
2	4068105	193	2336.5156986159
2	4083131	194	2336.4367803058
2	4103946	195	2336.3507167494
2	4117534	196	2336.2720213226
2	4132755	197	2336.193137352
2	4156854	198	2336.1077859778
2	4175706	199	2336.0281702562
2	4190283	200	2335.9494064443
2	4206948	201	2335.8701541256
2	4225047	202	2335.7905774815
2	4240858	203	2335.7112783265
2	4262889	204	2335.631030033
2	4285618	205	2335.5507684496
2	4299393	206	2335.4719526128
2	4320819	207	2335.3916715794
2	4336204	208	2335.3125664125
2	4357158	209	2335.2326072459
2	4369378	210	2335.1541517149
2	4383946	211	2335.075124655
2	4401459	212	2334.9957004001
2	4414859	213	2334.916954374
2	4426070	214	2334.8386116424
2	4442002	215	2334.7595618783
2	4460946	216	2334.6797975689
2	4479697	217	2334.6001583345
2	4495831	218	2334.5207812804
2	4508583	219	2334.4421478321
2	4523153	220	2334.3633130802
2	4539032	221	2334.2841186511
2	4556231	222	2334.2046740392
2	4568174	223	2334.1262832465
2	4582570	224	2334.0472816419
2	4598777	225	2333.9681743295
2	4612575	226	2333.8893754536
2	4623785	227	2333.8109714309
2	4637044	228	2333.7322831121
2	4648418	229	2333.6540083865
2	4659763	230	2333.5756397308
2	4677683	231	2333.4961393047
2	4691563	232	2333.4174154153
2	4704848	233	2333.3386499234
2	4717693	234	2333.2600450844
2	4731051	235	2333.1812731253
2	4745534	236	2333.1024164492
2	4758977	237	2333.0237060883
2	4772150	238	2332.945320232
2	4789399	239	2332.866016929
2	4801945	240	2332.7873392845
2	4815100	241	2332.7087610233
2	4823401	242	2332.6309738687
2	4834086	243	2332.5528622171
2	4844703	244	2332.4747106309
2	4856625	245	2332.3963148237
2	4872826	246	2332.3171964845
2	4885194	247	2332.2385896067
2	4895167	248	2332.1605785441
2	4913382	249	2332.0809630124
2	4925566	250	2332.0024880649
2	4935675	251	2331.9245050837
2	4947380	252	2331.8462154115
2	4957702	253	2331.7680193149
2	4967932	254	2331.68986003
2	4978487	255	2331.6116515451
2	4986253	256	2331.5340433139
2	5001921	257	2331.4549602985
2	5008163	258	2331.377648686
2	5023875	259	2331.2984015394
2	5031543	260	2331.2207868415
2	5041799	261	2331.1427295007
2	5050439	262	2331.0648982049
2	5059715	263	2330.9869138594
2	5074448	264	2330.9022496532
2	5095449	265	2330.8165396651
2	5108286	266	2330.7380302147
2	5117233	267	2330.6601672936
2	5133720	268	2330.580953492
2	5143710	269	2330.5029066767
2	5154356	270	2330.4248428196
2	5173537	271	2330.34041696
2	5186013	272	2330.2619034748
2	5207286	273	2330.1775172365
2	5219951	274	2330.0989837585
2	5228794	275	2330.0211899678
2	5236773	276	2329.9435519943
2	5249567	277	2329.8650657385
2	5260785	278	2329.7868238476
2	5271216	279	2329.7086582156
2	5283364	280	2329.6302737379
2	5296159	281	2329.5517967077
2	5305308	282	2329.4737892014
2	5315380	283	2329.3956836929
2	5328847	284	2329.3170718502
2	5335239	285	2329.2396984765
2	5347810	286	2329.1611053102
2	5355973	287	2329.0833515281
2	5371188	288	2329.0044460394
2	5385259	289	2328.9256284809
2	5402179	290	2328.846220202
2	5413414	291	2328.7679757541
2	5422818	292	2328.6901010136
2	5430788	293	2328.6123655977
2	5436851	294	2328.5350567392
2	5448507	295	2328.456842038
2	5460236	296	2328.3785402446
2	5473350	297	2328.2949651431
2	5486861	298	2328.215196611
2	5504674	299	2328.130082054
2	5516247	300	2328.0516779144
2	5529268	301	2327.9729991968
2	5542041	302	2327.8945524408
2	5555665	303	2327.8135351068
2	5570820	304	2327.7308367227
2	5588013	305	2327.6508759486
2	5600548	306	2327.5687549734
2	5615374	307	2327.4897377864
2	5622052	308	2327.4122909295
2	5631355	309	2327.3329291079
2	5639947	310	2327.2550626467
2	5649719	311	2327.1769971543
2	5657449	312	2327.0992535191
2	5665499	313	2327.0215326137
2	5678490	314	2326.9431909886
2	5688796	315	2326.8650111546
2	5697655	316	2326.7871864801
2	5706741	317	2326.7092799859
2	5721769	318	2326.6302066965
2	5732792	319	2326.5519121074
2	5742737	320	2326.4738943934
2	5754110	321	2326.3956334041
2	5776472	322	2326.3103667165
2	5786224	323	2326.2313683221
2	5796686	324	2326.1531129532
2	5811613	325	2326.0740776374
2	5830484	326	2325.9944451095
2	5841284	327	2325.916237929
2	5854964	328	2325.8376238964
2	5865201	329	2325.7594085777
2	5877403	330	2325.6808686778
2	5889974	331	2325.6023937948
2	5899285	332	2325.5246033964
2	5912196	333	2325.4461324081
2	5925005	334	2325.3675130378
2	5934648	335	2325.2895700673
2	5948451	336	2325.2108839338
2	5960491	337	2325.132390727
2	5970373	338	2325.0545110353
2	5986624	339	2324.9752866568
2	5998973	340	2324.8966494963
2	6011350	341	2324.8181878317
2	6021392	342	2324.7401356342
2	6033496	343	2324.6618099246
2	6045998	344	2324.5832806274
2	6061076	345	2324.5043548626
2	6068835	346	2324.4267488398
2	6079919	347	2324.3484860146
2	6087138	348	2324.2708634394
2	6099138	349	2324.1926004511
2	6113052	350	2324.1139701999
2	6118101	351	2324.0367744638
2	6130072	352	2323.9583192087
2	6138440	353	2323.8804139076
2	6147546	354	2323.8024921679
2	6161098	355	2323.7237292213
2	6176454	356	2323.6447283188
2	6184912	357	2323.5668864929
2	6191612	358	2323.489472354
2	6201056	359	2323.4114009478
2	6215308	360	2323.3325967674
2	6222966	361	2323.2548385274
2	6235560	362	2323.1762847287
2	6243758	363	2323.0985723107
2	6254341	364	2323.0203870282
2	6265037	365	2322.9421544708
2	6273651	366	2322.8643818828
2	6286218	367	2322.7858608073
2	6293048	368	2322.7084724195
2	6302429	369	2322.6304116516
2	6313919	370	2322.5520954525
2	6321334	371	2322.4745460291
2	6329184	372	2322.3967427427
2	6338514	373	2322.3187395365
2	6346659	374	2322.2409948378
2	6362122	375	2322.1620832687
2	6370596	376	2322.0842755226
2	6379808	377	2322.0062134597
2	6388588	378	2321.9284834753
2	6401225	379	2321.8500438329
2	6413979	380	2321.7712891316
2	6424710	381	2321.6931980777
2	6436687	382	2321.6148388774
2	6445177	383	2321.5370839564
2	6455162	384	2321.4590923137
2	6470068	385	2321.3799789026
2	6481288	386	2321.3017419482
2	6493112	387	2321.2234245395
2	6505034	388	2321.1392849413
2	6514446	389	2321.0614473792
2	6526320	390	2320.9830773088
2	6534345	391	2320.905285953
2	6543168	392	2320.8272807778
2	6549434	393	2320.7498867579
2	6558343	394	2320.6720399277
2	6568979	395	2320.5938814668
2	6581756	396	2320.5154366494
2	6590445	397	2320.4376187248
2	6605031	398	2320.3587023316
2	6612040	399	2320.2813142193
2	6623156	400	2320.2030983898
2	6632392	401	2320.1252160283
2	6645379	402	2320.0466307941
2	6655058	403	2319.9686709842
2	6665038	404	2319.890579694
2	6674558	405	2319.8126053859
2	6687425	406	2319.7340535601
2	6697717	407	2319.65596559
2	6708162	408	2319.5778907857
2	6719055	409	2319.4996643205
2	6725433	410	2319.4223292158
2	6734323	411	2319.3445794208
2	6738957	412	2319.2674679021
2	6750230	413	2319.1891760533
2	6760276	414	2319.1110662192
2	6771898	415	2319.0327676287
2	6777385	416	2318.955517711
2	6787190	417	2318.8773524419
2	6796222	418	2318.7994701363
2	6803247	419	2318.7220093519
2	6811492	420	2318.6442576424
2	6818716	421	2318.5667198459
2	6827849	422	2318.4887821842
2	6835288	423	2318.4112363822
2	6849493	424	2318.3325901464
2	6860517	425	2318.254224198
2	6868303	426	2318.1766010262
2	6872154	427	2318.0995183506
2	6881703	428	2318.0215844072
2	6890287	429	2317.9438730052
2	6898666	430	2317.8660904181
2	6909874	431	2317.7878312062
2	6917924	432	2317.7101479263
2	6928974	433	2317.6318780088
2	6935906	434	2317.5544085748
2	6941730	435	2317.477093376
2	6950746	436	2317.399205957
2	6962032	437	2317.3210927609
2	6968301	438	2317.2436806769
2	6975880	439	2317.1660503819
2	6984472	440	2317.0882512144
2	6992217	441	2317.0106767781
2	7004408	442	2316.9320586864
2	7012479	443	2316.8543712988
2	7018546	444	2316.7769402685
2	7027530	445	2316.6990309157
2	7038637	446	2316.6207700507
2	7052070	447	2316.5422165344
2	7061899	448	2316.4643283012
2	7071674	449	2316.3863518209
2	7080790	450	2316.3083258519
2	7086392	451	2316.2310861303
2	7092997	452	2316.1536613088
2	7098102	453	2316.0764706409
2	7104796	454	2315.9990939332
2	7116659	455	2315.9175364874
2	7128133	456	2315.837569223
2	7138356	457	2315.7595154359
2	7143137	458	2315.6825045864
2	7152345	459	2315.6045240947
2	7160693	460	2315.5266873665
2	7170257	461	2315.4487307738
2	7181121	462	2315.3706445669
2	7190702	463	2315.2928604276
2	7201498	464	2315.2147015491
2	7209477	465	2315.1370433005
2	7220576	466	2315.0589501276
2	7231315	467	2314.9808259234
2	7238464	468	2314.9031934588
2	7244209	469	2314.8259473816
2	7253981	470	2314.7479610934
2	7258406	471	2314.6709485431
2	7266953	472	2314.5931122896
2	7271508	473	2314.5160904909
2	7280197	474	2314.438302265
2	7286355	475	2314.3609612822
2	7294754	476	2314.2825785869
2	7303808	477	2314.2009958007
2	7311134	478	2314.1234676002
2	7319614	479	2314.0457355338
2	7324664	480	2313.9686165993
2	7335061	481	2313.8904256147
2	7345005	482	2313.8124182358
2	7352839	483	2313.7347334673
2	7359110	484	2313.657312483
2	7368488	485	2313.5793616631
2	7375271	486	2313.5018744149
2	7381695	487	2313.4245918425
2	7390245	488	2313.3468081346
2	7402539	489	2313.2650648358
2	7409017	490	2313.1849313837
2	7411984	491	2313.1081677529
2	7417780	492	2313.0309416581
2	7427117	493	2312.9530425907
2	7440312	494	2312.8744579285
2	7446617	495	2312.7970838455
2	7453918	496	2312.7194858735
2	7458876	497	2312.6423924929
2	7460453	498	2312.5658544929
2	7468775	499	2312.4880314834
2	7476779	500	2312.4103672225
2	7482003	501	2312.3331797057
2	7489366	502	2312.2555759316
2	7497228	503	2312.1778482681
2	7503222	504	2312.1004530896
2	7509814	505	2312.022971072
2	7516581	506	2311.945465599
2	7522034	507	2311.8680798294
2	7526237	508	2311.7910539806
2	7535719	509	2311.7130555515
2	7541818	510	2311.6356115396
2	7550829	511	2311.5578110565
2	7557123	512	2311.4804071917
2	7566001	513	2311.4024911496
2	7571483	514	2311.32525717
2	7580278	515	2311.2473925432
2	7587440	516	2311.1697402685
2	7594911	517	2311.0921997735
2	7597350	518	2311.015483669
2	7605705	519	2310.9376309686
2	7615850	520	2310.85956212
2	7625199	521	2310.7816913658
2	7630542	522	2310.7045463771
2	7639620	523	2310.6266656613
2	7642913	524	2310.5498798556
2	7649637	525	2310.4724451999
2	7656302	526	2310.3951115544
2	7666001	527	2310.3171766734
2	7671650	528	2310.2398810228
2	7677138	529	2310.1627238373
2	7682612	530	2310.0854492222
2	7692808	531	2310.0074726441
2	7699684	532	2309.9298327021
2	7707413	533	2309.8521622105
2	7714913	534	2309.7745345389
2	7718489	535	2309.6976193289
2	7722190	536	2309.6207623822
2	7730394	537	2309.543160758
2	7734710	538	2309.4661721898
2	7739926	539	2309.3888840808
2	7749931	540	2309.3108471113
2	7755690	541	2309.2335981608
2	7763408	542	2309.1559427844
2	7770038	543	2309.0786085126
2	7780124	544	2309.0005026787
2	7785226	545	2308.9234162367
2	7790569	546	2308.8461839128
2	7798311	547	2308.7685952323
2	7805855	548	2308.6909655251
2	7813962	549	2308.6133261378
2	7821441	550	2308.5358361332
2	7826595	551	2308.4586746383
2	7831194	552	2308.3816087633
2	7840057	553	2308.2995285606
2	7845529	554	2308.2212478892
2	7851959	555	2308.1438777237
2	7857217	556	2308.0666437442
2	7862649	557	2307.9894179839
2	7867519	558	2307.9123183153
2	7877878	559	2307.834257218
2	7881019	560	2307.7574330721
2	7885901	561	2307.6802895365
2	7892405	562	2307.6027848779
2	7899498	563	2307.5252230565
2	7906529	564	2307.4476908964
2	7914194	565	2307.370123068
2	7915827	566	2307.2935768487
2	7920712	567	2307.2164671248
2	7927751	568	2307.1389838188
2	7934371	569	2307.0615282122
2	7939740	570	2306.9842777941
2	7944064	571	2306.9072009182
2	7950283	572	2306.8298709255
2	7954677	573	2306.7529445172
2	7960993	574	2306.6754955682
2	7969996	575	2306.597590267
2	7976005	576	2306.5202814085
2	7979711	577	2306.4434034199
2	7987499	578	2306.3657870126
2	7990868	579	2306.2887994922
2	7996798	580	2306.2114462717
2	8001140	581	2306.1344240325
2	8007888	582	2306.0570254808
2	8014891	583	2305.9795262202
2	8027226	584	2305.8951639998
2	8038203	585	2305.8169604336
2	8046900	586	2305.7391135573
2	8055695	587	2305.6597400899
2	8072570	588	2305.576105789
2	8078419	589	2305.4988117612
2	8084853	590	2305.4214485266
2	8091548	591	2305.3440859594
2	8105803	592	2305.260936375
2	8112421	593	2305.1834153841
2	8117332	594	2305.1063125462
2	8126159	595	2305.0284415202
2	8133264	596	2304.9508273108
2	8144411	597	2304.8724728565
2	8151107	598	2304.7950476034
2	8158222	599	2304.7175456662
2	8164424	600	2304.6401264263
2	8175191	601	2304.5619365529
2	8180919	602	2304.4846650964
2	8189511	603	2304.4069132419
2	8198854	604	2304.3290693144
2	8207737	605	2304.2512926537
2	8217483	606	2304.1732492973
2	8225846	607	2304.0955998157
2	8234709	608	2304.0177954604
2	8240607	609	2303.9404292425
2	8252050	610	2303.862081463
2	8264147	611	2303.7836963133
2	8272598	612	2303.7059427828
2	8281709	613	2303.6279742645
2	8291147	614	2303.5501011066
2	8297968	615	2303.4725355759
2	8305148	616	2303.3950821219
2	8319238	617	2303.3164225328
2	8327169	618	2303.2386408907
2	8334939	619	2303.1610638829
2	8342146	620	2303.0834983522
2	8349420	621	2303.0059328215
2	8357194	622	2302.9283369767
2	8366570	623	2302.850529306
2	8372565	624	2302.773188497
2	8376901	625	2302.696227066
2	8384813	626	2302.6185791004
2	8392633	627	2302.5409165056
2	8403920	628	2302.4626263349
2	8409581	629	2302.3853272743
2	8413967	630	2302.3072652251
2	8424163	631	2302.2252175845
2	8429910	632	2302.1479701784
2	8437399	633	2302.0702910389
2	8445919	634	2301.9925893517
2	8453625	635	2301.9149370155
2	8464529	636	2301.8366349618
2	8473523	637	2301.7587719457
2	8480849	638	2301.6811579666
2	8487895	639	2301.6036560953
2	8491025	640	2301.5268833835
2	8500426	641	2301.448908502
2	8509236	642	2301.3710396573
2	8520167	643	2301.2927018598
2	8527652	644	2301.2149582246
2	8533076	645	2301.1377406837
2	8543222	646	2301.0596490587
2	8552011	647	2300.9817764331
2	8562014	648	2300.9036675997
2	8574649	649	2300.825088567
2	8579317	650	2300.7480104441
2	8586536	651	2300.6703188395
2	8596336	652	2300.5922581596
2	8605532	653	2300.51430276
2	8612577	654	2300.4367372293
2	8617292	655	2300.3596875188
2	8627034	656	2300.2816123324
2	8630999	657	2300.2046409531
2	8640322	658	2300.1267621366
2	8645301	659	2300.0495601064
2	8653119	660	2299.9718445378
2	8658709	661	2299.8945989303
2	8663836	662	2299.8174952639
2	8674260	663	2299.7392815451
2	8678248	664	2299.6623955553
2	8685717	665	2299.5848135861
2	8692331	666	2299.507408614
2	8700116	667	2299.4297749357
2	8707086	668	2299.3522191122
2	8715021	669	2299.2745835384
2	8725515	670	2299.1964133925
2	8732182	671	2299.1189787075
2	8741655	672	2299.0411508126
2	8748995	673	2298.9635685262
2	8755936	674	2298.8860831586
2	8764692	675	2298.8083207556
2	8770704	676	2298.7310541874
2	8777399	677	2298.6535284138
2	8783150	678	2298.5761913207
2	8791708	679	2298.4984701882
2	8799963	680	2298.4207669322
2	8803042	681	2298.3438891618
2	8810221	682	2298.2662356711
2	8817083	683	2298.1887663197
2	8821425	684	2298.1117460844
2	8829989	685	2298.0339593984
2	8836715	686	2297.956450482
2	8842517	687	2297.8790867674
2	8849511	688	2297.8014210793
2	8858365	689	2297.7236532712
2	8863091	690	2297.6465739314
2	8869630	691	2297.5691742782
2	8877570	692	2297.4914291763
2	8882573	693	2297.4142965902
2	8897756	694	2297.3312342214
2	8903315	695	2297.2540208726
2	8910320	696	2297.1764940926
2	8920329	697	2297.098496981
2	8926531	698	2297.0210593525
2	8933321	699	2296.94350351
2	8938707	700	2296.8662680722
2	8945206	701	2296.788910555
2	8953651	702	2296.7111796496
2	8964857	703	2296.6329052269
2	8969045	704	2296.555930176
2	8975660	705	2296.4785037896
2	8981002	706	2296.4013192617
2	8985230	707	2296.3243456113
2	8992216	708	2296.2468108833
2	9004023	709	2296.1642612711
2	9011369	710	2296.0851996585
2	9015240	711	2296.0082794557
2	9028616	712	2295.9295838431
2	9037839	713	2295.8518021332
2	9045002	714	2295.774208188
2	9053608	715	2295.6964251104
2	9062846	716	2295.6185325569
2	9079319	717	2295.5393178844
2	9087110	718	2295.4616160575
2	9099924	719	2295.3769882998
2	9110012	720	2295.2990291497
2	9121035	721	2295.220849594
2	9128786	722	2295.1432472945
2	9140839	723	2295.064887411
2	9150247	724	2294.9869240467
2	9160115	725	2294.9089528018
2	9168998	726	2294.8309991872
2	9179962	727	2294.7528543487
2	9190619	728	2294.6747027969
2	9195268	729	2294.5976553857
2	9204491	730	2294.5197372887
2	9209814	731	2294.4425811895
2	9223904	732	2294.3581792312
2	9231742	733	2294.2805865489
2	9239464	734	2294.2029154173
2	9246505	735	2294.1253615465
2	9253889	736	2294.0477756508
2	9261951	737	2293.9701087758
2	9266425	738	2293.8930791715
2	9271630	739	2293.8158534113
2	9291355	740	2293.7303590501
2	9298578	741	2293.6527399254
2	9305066	742	2293.5752289199
2	9312168	743	2293.4977570219
2	9325435	744	2293.4192197046
2	9333151	745	2293.3415629726
2	9342301	746	2293.2636469148
2	9353521	747	2293.1853902644
2	9363715	748	2293.1072738148
2	9376253	749	2293.0229922877
2	9381129	750	2292.9459081413
2	9391116	751	2292.8678448965
2	9404436	752	2292.7892669958
2	9414125	753	2292.7112180028
2	9427652	754	2292.6324522439
2	9434795	755	2292.5550553673
2	9448058	756	2292.4764146152
2	9467624	757	2292.3967350206
2	9474616	758	2292.3192309636
2	9486698	759	2292.2408536291
2	9499966	760	2292.1621435041
2	9507351	761	2292.0846446542
2	9516046	762	2292.006850493
2	9529807	763	2291.9280121805
2	9540034	764	2291.8501234052
2	9550687	765	2291.7720291105
2	9560137	766	2291.6940848785
2	9573393	767	2291.6153481021
2	9584185	768	2291.5372375463
2	9592694	769	2291.4594710442
2	9602599	770	2291.3813493109
2	9615885	771	2291.3028221678
2	9623305	772	2291.2252375639
2	9634034	773	2291.1471186388
2	9641393	774	2291.0695960233
2	9655686	775	2290.9908778194
2	9663848	776	2290.9131649169
2	9672000	777	2290.8353667232
2	9683969	778	2290.7570809905
2	9690119	779	2290.6797416178
2	9695827	780	2290.6024410666
2	9708584	781	2290.5239742564
2	9722863	782	2290.4393727785
2	9729598	783	2290.3618920832
2	9740765	784	2290.2796103094
2	9751335	785	2290.1998294482
2	9759504	786	2290.1220914378
2	9766795	787	2290.0445100082
2	9777889	788	2289.9661328851
2	9785048	789	2289.8885506985
2	9791587	790	2289.811047838
2	9799145	791	2289.7333895114
2	9808971	792	2289.6553717391
2	9822973	793	2289.5766738851
2	9829733	794	2289.4991678191
2	9841872	795	2289.4206266
2	9848590	796	2289.3432037702
2	9857954	797	2289.2652738112
2	9862625	798	2289.1881932783
2	9872312	799	2289.1102076399
2	9884868	800	2289.0317004727
2	9895539	801	2288.9535628731
2	9902528	802	2288.8760496034
2	9906231	803	2288.7991636136
2	9915015	804	2288.7213172636
2	9924761	805	2288.6433666853
2	9932464	806	2288.5657258986
2	9938680	807	2288.4883952351
2	9948653	808	2288.4103200487
2	9955356	809	2288.3327545181
2	9960703	810	2288.2556238737
2	9974209	811	2288.176958365
2	9979492	812	2288.0998053976
2	9988447	813	2288.0219544705
2	10000348	814	2287.9435438655
2	10014254	815	2287.864870053
2	10022008	816	2287.787244583
2	10030149	817	2287.7095804334
2	10039349	818	2287.6316409657
2	10046389	819	2287.5541997181
2	10054412	820	2287.4765577477
2	10064052	821	2287.3986737291
2	10071585	822	2287.3210868737
2	10084052	823	2287.2425386397
2	10090925	824	2287.1649813283
2	10098970	825	2287.0873203267
2	10106107	826	2287.0098841322
2	10110302	827	2286.9328609775
2	10117202	828	2286.8554068917
2	10123816	829	2286.7779822959
2	10133862	830	2286.6998830824
2	10144150	831	2286.6217719971
2	10148795	832	2286.5446476035
2	10159256	833	2286.4664849149
2	10165470	834	2286.3891213729
2	10172387	835	2286.3116751019
2	10182897	836	2286.233525014
2	10193833	837	2286.1552541932
2	10203325	838	2286.0774208143
2	10208753	839	2286.0001950541
2	10215647	840	2285.9227087216
2	10224582	841	2285.8448594831
2	10233861	842	2285.7669774993
2	10240498	843	2285.6895387651
2	10247025	844	2285.6121894255
2	10255529	845	2285.5344495032
2	10263930	846	2285.4566745152
2	10271220	847	2285.3791567759
2	10277180	848	2285.3019250531
2	10284592	849	2285.224317194
2	10291560	850	2285.1468680783
2	10302783	851	2285.0687503671
2	10310068	852	2284.9912415836
2	10314590	853	2284.9141480617
2	10322149	854	2284.8365063034
2	10330392	855	2284.7587179951
2	10336823	856	2284.6813631117
2	10342960	857	2284.6041173689
2	10348427	858	2284.5269131636
2	10356197	859	2284.4492848482
2	10364769	860	2284.3715068989
2	10371172	861	2284.2939909397
2	10385012	862	2284.209471815
2	10397316	863	2284.1311360644
2	10405817	864	2284.0532392154
2	10411652	865	2283.97596423
2	10422025	866	2283.8978667054
2	10425869	867	2283.8209317959
2	10435253	868	2283.7429999149
2	10438876	869	2283.6660949074
2	10446562	870	2283.5884557532
2	10455673	871	2283.51060538
2	10467042	872	2283.4323906322
2	10475906	873	2283.3546677692
2	10483163	874	2283.2770901457
2	10489127	875	2283.1997655923
2	10495639	876	2283.1223999513
2	10504079	877	2283.044736244
2	10512807	878	2282.966950919
2	10519105	879	2282.8895303504
2	10529136	880	2282.8114802435
2	10532005	881	2282.7347348639
2	10534871	882	2282.6579895392
2	10538398	883	2282.5810953301
2	10545434	884	2282.5036430615
2	10553682	885	2282.4258976091
2	10560934	886	2282.3483051005
2	10572763	887	2282.2700328351
2	10580487	888	2282.192467395
2	10586119	889	2282.1151891183
2	10595071	890	2282.0372842628
2	10604375	891	2281.9594263427
2	10612894	892	2281.8816335
2	10620692	893	2281.8039755842
2	10625204	894	2281.7269197092
2	10631373	895	2281.6495839824
2	10638283	896	2281.5720995287
2	10645190	897	2281.4946767252
2	10649948	898	2281.4175945008
2	10653116	899	2281.3408102158
2	10661091	900	2281.2632413314
2	10669023	901	2281.1855926293
2	10682460	902	2281.1009887304
2	10687939	903	2281.0237814738
2	10696807	904	2280.9460324417
2	10703950	905	2280.8684632561
2	10712002	906	2280.7907742971
2	10714884	907	2280.7140544148
2	10724037	908	2280.6360806961
2	10728986	909	2280.5589146553
2	10735666	910	2280.4815648763
2	10740122	911	2280.4045172206
2	10744808	912	2280.327396789
2	10751543	913	2280.2499739713
2	10756140	914	2280.1728858516
2	10762521	915	2280.0954668479
2	10773488	916	2280.0171879183
2	10779044	917	2279.939989928
2	10784140	918	2279.8628571239
2	10790970	919	2279.7853872538
2	10795423	920	2279.7083760889
2	10802684	921	2279.6308650984
2	10809986	922	2279.5533591925
2	10820639	923	2279.4738709658
2	10830353	924	2279.3921852944
2	10833773	925	2279.3153075239
2	10843542	926	2279.2374034522
2	10852498	927	2279.1597119862
2	10861822	928	2279.0818723407
2	10869719	929	2279.0041499105
2	10876773	930	2278.9266062705
2	10884036	931	2278.8490283268
2	10893842	932	2278.7711042671
2	10896618	933	2278.6943485904
2	10904726	934	2278.6166599025
2	10911338	935	2278.5392303288
2	10916622	936	2278.4620354729
2	10924937	937	2278.3843368579
2	10930359	938	2278.3070742968
2	10940575	939	2278.2289199608
2	10949674	940	2278.1510915116
2	10957117	941	2278.0735342002
2	10965186	942	2277.9958669223
2	10972129	943	2277.9184020755
2	10976847	944	2277.8413308253
2	10983250	945	2277.7639269606
2	10988847	946	2277.6866457862
2	10994867	947	2277.6093137742
2	11001894	948	2277.5318207566
2	11008336	949	2277.45438131
2	11013926	950	2277.3771194589
2	11017512	951	2277.3002334692
2	11024806	952	2277.2226666099
2	11032377	953	2277.1451006798
2	11036175	954	2277.0681469515
2	11040948	955	2276.9910904799
2	11048011	956	2276.9135467883
2	11055060	957	2276.8360416432
2	11061799	958	2276.7585584031
2	11067588	959	2276.6812895939
2	11075641	960	2276.6036513771
2	11085206	961	2276.525728541
2	11090362	962	2276.4486024948
2	11097177	963	2276.3710909925
2	11109771	964	2276.2925468008
2	11117061	965	2276.2150544797
2	11124496	966	2276.1374854918
2	11131856	967	2276.0598908964
2	11137422	968	2275.982641399
2	11144581	969	2275.9052055849
2	11152921	970	2275.827409187
2	11156998	971	2275.7504626442
2	11166241	972	2275.6725729458
2	11170819	973	2275.5954813553
2	11177792	974	2275.5179850669
2	11186870	975	2275.4401626436
2	11192114	976	2275.3629420764
2	11198275	977	2275.2856079671
2	11204617	978	2275.2082232701
2	11214126	979	2275.1303097496
2	11219677	980	2275.0530928558
2	11227596	981	2274.9754896529
2	11231861	982	2274.8984453479
2	11237621	983	2274.8212058727
2	11242395	984	2274.7441180483
2	11249731	985	2274.6664921321
2	11254021	986	2274.5894798917