version 2
run General-0-20140524-16:51:04-10695
attr configname General
attr datetime 20140524-16:51:04
attr experiment General
attr inifile omnetpp.ini
attr iterationvars ""
attr iterationvars2 $repetition=0
attr measurement ""
attr network WSN
attr processid 10695
attr repetition 0
attr replication #0
attr resultdir results
attr runnumber 0
attr seedset 0

vector 2  WSN.statistic  networkEnergy:vector  ETV
attr title  "Node energy, vector"
vector 3  WSN.statistic  sensorEnergy:vector  ETV
attr title  "Sensor energy, vector"
vector 4  WSN.statistic  sensorEnergyLevel:vector  ETV
attr title  "Sensor energy (level), vector"
2	146	0	1296
2	435626	60	1281.7040365303
2	1117214	120	1267.3792275897
2	1781200	180	1253.0573288563
2	2427550	240	1238.7364670621
2	3095056	300	1224.4139702295
2	3731502	360	1210.0948484042
2	4387873	420	1195.7740965797
2	5044685	480	1181.4528414837
2	5716383	540	1167.1293447766
2	6358396	600	1152.8094190395
2	6983322	660	1138.4914186133
2	7611861	720	1124.1729312334
2	8274977	780	1109.8506154399
2	8917217	840	1095.530825091
2	9556165	900	1081.2116133261
2	10200821	960	1066.8916397529
2	10851030	1020	1052.5705988747
2	11498885	1080	1038.2505756673
2	12152691	1140	1023.9294408943
2	12784538	1200	1009.6106973106
2	13447648	1260	995.28840774989
2	14094276	1320	980.96889280722
2	14741582	1380	966.64883824783
2	15381460	1440	952.32954882765
2	16025811	1500	938.00933107092
2	16678044	1560	923.68835955243
2	17326831	1620	909.36797575884
2	17979491	1680	895.04692091079
2	18636672	1740	880.72579105002
2	19279112	1800	866.40567679148
2	19930142	1860	852.08494763019
2	20609016	1920	837.76150807841
2	21256279	1980	823.44110996164
2	21891802	2040	809.12184910592
2	22551999	2100	794.80014651082
2	23209472	2160	780.47869284079
2	23831876	2220	766.16134693374
2	24468306	2280	751.84169790441
2	25110591	2340	737.52229905237
2	25765564	2400	723.20124268383
2	26414313	2460	708.88136109495
2	27052517	2520	694.56193763152
2	27715873	2580	680.23992416141
2	28359320	2640	665.91967242737
2	28996677	2700	651.6008347489
2	29661249	2760	637.27829233375
2	30307762	2820	622.95847489051
2	30980268	2880	608.63554098436
2	31612826	2940	594.31684410826
2	32254085	3000	579.99717193886
2	32894373	3060	565.6766362612
2	33537706	3120	551.35638862905
2	34183475	3180	537.0366376677
2	34843122	3240	522.71467950654
2	35492629	3300	508.3943257888
2	36134979	3360	494.07412191415
2	36801269	3420	479.75169128932
2	37476880	3480	465.42750697441
3	38807033	3600	3.0270048038453
3	38807033	3600	3.0197541203009
3	38807033	3600	3.0377290514423
3	38807033	3600	3.0163978276257
3	38807033	3600	3.0403671827315
3	38807033	3600	3.0399379788337
3	38807033	3600	3.0331667793694
3	38807033	3600	3.0496327839731
3	38807033	3600	3.0145463193917
3	38807033	3600	3.0283779685255
3	38807033	3600	3.0441778468716
3	38807033	3600	3.010785073741
3	38807033	3600	3.0097883458057
3	38807033	3600	3.040330036088
3	38807033	3600	3.0411301758609
3	38807033	3600	3.0369774969825
3	38807033	3600	3.044441328079
3	38807033	3600	3.0392443357404
3	38807033	3600	3.0337950258664
3	38807033	3600	3.052632596247
3	38807033	3600	3.0550912862252
3	38807033	3600	3.0349786761267
3	38807033	3600	3.0451575316215
3	38807033	3600	3.0403207295192
3	38807033	3600	3.0317545878934
3	38807033	3600	3.0274695662705
3	38807033	3600	3.0230437611441
3	38807033	3600	3.0416135355577
3	38807033	3600	3.0487760638107
3	38807033	3600	3.0291374497696
3	38807033	3600	3.0538965572966
3	38807033	3600	3.0256507666233
3	38807033	3600	3.0418195814977
3	38807033	3600	3.0511239706772
3	38807033	3600	3.0312359235751
3	38807033	3600	3.0293512688268
3	38807033	3600	2.9928063344671
3	38807033	3600	3.0458088760333
3	38807033	3600	3.0317784447919
3	38807033	3600	3.0301201478913
3	38807033	3600	3.032379866833
3	38807033	3600	3.0501887657596
3	38807033	3600	3.0336174646836
3	38807033	3600	3.0425106745281
3	38807033	3600	3.0521729427773
3	38807033	3600	3.027344758295
3	38807033	3600	3.0482219129156
3	38807033	3600	3.0036898880388
3	38807033	3600	3.060512461932
3	38807033	3600	3.0346373221811
3	38807033	3600	3.0426518237841
3	38807033	3600	3.0249302984452
3	38807033	3600	3.0604099360552
3	38807033	3600	3.0295557135866
3	38807033	3600	3.046474303302
3	38807033	3600	3.0244578968145
3	38807033	3600	3.0591393550735
3	38807033	3600	3.0309770533483
3	38807033	3600	3.0406722294828
3	38807033	3600	3.0418952022164
3	38807033	3600	3.0640443189193
3	38807033	3600	3.0310835686834
3	38807033	3600	3.0366250241848
3	38807033	3600	3.0300433341191
3	38807033	3600	3.058854237651
3	38807033	3600	3.0295786251033
3	38807033	3600	3.0484009780505
3	38807033	3600	3.0221131977655
3	38807033	3600	3.0600089920298
3	38807033	3600	3.0364647399356
3	38807033	3600	3.0407815289306
3	38807033	3600	3.030172068969
3	38807033	3600	3.0640020766918
3	38807033	3600	3.028308748274
3	38807033	3600	3.035019731461
3	38807033	3600	3.0203506137206
3	38807033	3600	3.0588542376506
3	38807033	3600	3.013889379012
3	38807033	3600	3.0385409622966
3	38807033	3600	3.0315855400224
3	38807033	3600	3.0600089920298
3	38807033	3600	3.0298944999453
3	38807033	3600	3.0384775089928
3	38807033	3600	3.0183074590728
3	38807033	3600	3.0619905682453
3	38807033	3600	3.0313912929606
3	38807033	3600	3.0229813904543
3	38807033	3600	3.0437693270635
3	38807033	3600	3.0639651176141
3	38807033	3600	3.0394847925264
3	38807033	3600	3.0427663658744
3	38807033	3600	3.0271455128333
3	38807033	3600	3.0629415526511
3	38807033	3600	3.0220522424495
3	38807033	3600	3.0399417680061
3	38807033	3600	3.0365092652144
3	38807033	3600	3.0619905682453
3	38807033	3600	3.0193759478669
3	38807033	3600	3.0403124109063
3	38807033	3600	3.0133298960805
3	38807033	3600	3.0584019709067
3	38807033	3600	3.0151631968897
3	38807033	3600	3.0424843121236
3	38807033	3600	3.0307468040283
3	38807033	3600	3.0586888593637
3	38807033	3600	3.0228228383224
3	38807033	3600	3.0485256108522
3	38807033	3600	3.0350827864093
3	38807033	3600	3.0619905682455
3	38807033	3600	3.0178815184611
3	38807033	3600	3.033279831526
3	38807033	3600	3.0317275676696
3	38807033	3600	3.0584019709068
3	38807033	3600	3.0242805669683
3	38807033	3600	3.0282820180798
3	38807033	3600	3.0119806566366
3	38807033	3600	3.0586888593638
3	38807033	3600	3.0087998697109
3	38807033	3600	3.0472728685577
3	38807033	3600	3.0046574404163
3	38807033	3600	3.061054950939
3	38807033	3600	3.021602180459
3	38807033	3600	3.0397066970997
3	38807033	3600	3.0416966724125
3	38807033	3600	3.063139164749
3	38807033	3600	3.0372425747582
3	38807033	3600	3.0514335554008
3	38807033	3600	3.0313740834277
3	38807033	3600	3.058380157585
3	38807033	3600	3.0334090834637
3	38807033	3600	3.0073689226116
3	38807033	3600	3.0327785334009
3	38807033	3600	3.0639387171407
3	38807033	3600	3.0010119415713
3	38807033	3600	3.0382475252303
3	38807033	3600	3.0155117456924
3	38807033	3600	3.0614017212966
3	38807033	3600	3.0003755456789
3	38807033	3600	3.0444679060544
3	38807033	3600	3.0102093208222
3	38807033	3600	3.0622044942456
3	38807033	3600	2.9911675044211
3	38807033	3600	3.0350519765287
3	38807033	3600	2.990824539533
4	38807033	3600	33
4	38807033	3600	33
4	38807033	3600	33
4	38807033	3600	33
4	38807033	3600	33
4	38807033	3600	33
4	38807033	3600	33
4	38807033	3600	33
4	38807033	3600	33
4	38807033	3600	33
4	38807033	3600	33
4	38807033	3600	33
4	38807033	3600	33
4	38807033	3600	33
4	38807033	3600	33
4	38807033	3600	33
4	38807033	3600	33
4	38807033	3600	33
4	38807033	3600	33
4	38807033	3600	33
4	38807033	3600	33
4	38807033	3600	33
4	38807033	3600	33
4	38807033	3600	33
4	38807033	3600	33
4	38807033	3600	33
4	38807033	3600	33
4	38807033	3600	33
4	38807033	3600	33
4	38807033	3600	33
4	38807033	3600	33
4	38807033	3600	33
4	38807033	3600	33
4	38807033	3600	33
4	38807033	3600	33
4	38807033	3600	33
4	38807033	3600	33
4	38807033	3600	33
4	38807033	3600	33
4	38807033	3600	33
4	38807033	3600	33
4	38807033	3600	33
4	38807033	3600	33
4	38807033	3600	33
4	38807033	3600	33
4	38807033	3600	33
4	38807033	3600	33
4	38807033	3600	33
4	38807033	3600	34
4	38807033	3600	33
4	38807033	3600	33
4	38807033	3600	33
4	38807033	3600	34
4	38807033	3600	33
4	38807033	3600	33
4	38807033	3600	33
4	38807033	3600	33
4	38807033	3600	33
4	38807033	3600	33
4	38807033	3600	33
4	38807033	3600	34
4	38807033	3600	33
4	38807033	3600	33
4	38807033	3600	33
4	38807033	3600	33
4	38807033	3600	33
4	38807033	3600	33
4	38807033	3600	33
4	38807033	3600	34
4	38807033	3600	33
4	38807033	3600	33
4	38807033	3600	33
4	38807033	3600	34
4	38807033	3600	33
4	38807033	3600	33
4	38807033	3600	33
4	38807033	3600	33
4	38807033	3600	33
4	38807033	3600	33
4	38807033	3600	33
4	38807033	3600	34
4	38807033	3600	33
4	38807033	3600	33
4	38807033	3600	33
4	38807033	3600	34
4	38807033	3600	33
4	38807033	3600	33
4	38807033	3600	33
4	38807033	3600	34
4	38807033	3600	33
4	38807033	3600	33
4	38807033	3600	33
4	38807033	3600	34
4	38807033	3600	33
4	38807033	3600	33
4	38807033	3600	33
4	38807033	3600	34
4	38807033	3600	33
4	38807033	3600	33
4	38807033	3600	33
4	38807033	3600	33
4	38807033	3600	33
4	38807033	3600	33
4	38807033	3600	33
4	38807033	3600	33
4	38807033	3600	33
4	38807033	3600	33
4	38807033	3600	33
4	38807033	3600	34
4	38807033	3600	33
4	38807033	3600	33
4	38807033	3600	33
4	38807033	3600	33
4	38807033	3600	33
4	38807033	3600	33
4	38807033	3600	33
4	38807033	3600	33
4	38807033	3600	33
4	38807033	3600	33
4	38807033	3600	33
4	38807033	3600	34
4	38807033	3600	33
4	38807033	3600	33
4	38807033	3600	33
4	38807033	3600	34
4	38807033	3600	33
4	38807033	3600	33
4	38807033	3600	33
4	38807033	3600	33
4	38807033	3600	33
4	38807033	3600	33
4	38807033	3600	33
4	38807033	3600	34
4	38807033	3600	33
4	38807033	3600	33
4	38807033	3600	33
4	38807033	3600	34
4	38807033	3600	33
4	38807033	3600	33
4	38807033	3600	33
4	38807033	3600	34
4	38807033	3600	33
4	38807033	3600	33
4	38807033	3600	33
