version 2
run General-0-20140518-15:48:56-22773
attr configname General
attr datetime 20140518-15:48:56
attr experiment General
attr inifile omnetpp.ini
attr iterationvars ""
attr iterationvars2 $repetition=0
attr measurement ""
attr network WSN
attr processid 22773
attr repetition 0
attr replication #0
attr resultdir results
attr runnumber 0
attr seedset 0

vector 2  WSN.statistic  networkEnergy:vector  ETV
attr title  "Node energy, vector"
vector 3  WSN.statistic  sensorEnergy:vector  ETV
attr title  "Sensor energy, vector"
2	198	0	588000
2	1578	1	587999.923462
2	3155	2	587999.846924
2	4820	3	587999.770386
2	7006	4	587999.693848
2	8595	5	587999.61731
2	10172	6	587999.540772
2	12843	7	587999.46406412
2	15435	8	587999.38735623
2	17629	9	587999.3106707
2	20832	10	587999.23377057
2	26542	11	587999.15655303
2	28860	12	587999.07984515
2	34305	13	587999.0025279
2	41144	14	587998.92508865
2	49333	15	587998.84726776
2	55861	16	587998.76977297
2	66677	17	587998.6915314
2	78891	18	587998.6130961
2	90187	19	587998.5346819
2	103166	20	587998.45602858
2	123905	21	587998.37595918
2	133850	22	587998.29794765
2	151196	23	587998.21843222
2	174792	24	587998.13780903
2	195886	25	587998.05783604
2	217723	26	587997.97756567
2	242878	27	587997.896583
2	276093	28	587997.81420125
2	298478	29	587997.73379951
2	328737	30	587997.65202256
2	355011	31	587997.57079579
2	393939	32	587997.48736167
2	416395	33	587997.40701929
2	453173	34	587997.32398614
2	495625	35	587997.23976356
2	517131	36	587997.15954296
2	559431	37	587997.07532913
2	593270	38	587996.99305404
2	635798	39	587996.90884814
2	666802	40	587996.82680823
2	707536	41	587996.74312363
2	744495	42	587996.6600726
2	787772	43	587996.57568687
2	824654	44	587996.49274923
2	865980	45	587996.40888246
2	903556	46	587996.32550977
2	944267	47	587996.24190209
2	975761	48	587996.15983754
2	1021399	49	587996.07494294
2	1062949	50	587995.99102258
2	1094825	51	587995.9090087
2	1130346	52	587995.82612995
2	1171303	53	587995.74220759
2	1206815	54	587995.65921965
2	1237186	55	587995.57753302
2	1272843	56	587995.49452994
2	1304718	57	587995.41230618
2	1340982	58	587995.32940797
2	1367898	59	587995.24811538
2	1403815	60	587995.16530688
2	1437491	61	587995.08259416
2	1471191	62	587995.00011355
2	1496951	63	587994.91916432
2	1530418	64	587994.83673746
2	1559157	65	587994.75524796
2	1586037	66	587994.67425567
2	1613359	67	587994.59282923
2	1641658	68	587994.51123139
2	1667612	69	587994.43030245
2	1692757	70	587994.34945377
2	1721066	71	587994.26794169
2	1748521	72	587994.18658293
2	1769642	73	587994.10649767
2	1798738	74	587994.02495863
2	1823405	75	587993.94408915
2	1841040	76	587993.8645467
2	1862158	77	587993.78438073
2	1892860	78	587993.70251099
2	1920432	79	587993.62115266
2	1943172	80	587993.54078202
2	1964544	81	587993.46067632
2	1999177	82	587993.3778885
2	2020146	83	587993.29764398
2	2042074	84	587993.21736965
2	2066491	85	587993.13678741
2	2093333	86	587993.05556091
2	2120614	87	587992.97429918
2	2146413	88	587992.89326145
2	2174922	89	587992.81151858
2	2201235	90	587992.73036601
2	2225745	91	587992.64981214
2	2245683	92	587992.5699336
2	2270104	93	587992.48929712
2	2293959	94	587992.40852395
2	2330141	95	587992.32009352
2	2353956	96	587992.23911548
2	2376335	97	587992.15882148
2	2399053	98	587992.07841931
2	2423523	99	587991.99753857
2	2452747	100	587991.91603082
2	2474154	101	587991.83576279
2	2497592	102	587991.75533079
2	2526427	103	587991.67378656
2	2551233	104	587991.59294276
2	2580618	105	587991.51136542
2	2595554	106	587991.43246312
2	2626435	107	587991.35053099
2	2652970	108	587991.26950702
2	2673622	109	587991.18952036
2	2691813	110	587991.10990079
2	2717383	111	587991.0290612
2	2738902	112	587990.94888206
2	2761741	113	587990.8684212
2	2786444	114	587990.78761722
2	2803860	115	587990.70824105
2	2821912	116	587990.62862015
2	2836113	117	587990.54979987
2	2856455	118	587990.46988655
2	2884383	119	587990.38849619
2	2903337	120	587990.30875464
2	2917676	121	587990.2298958
2	2932927	122	587990.15086783
2	2949326	123	587990.07170123
2	2968686	124	587989.99195842
2	2988013	125	587989.91228006
2	3003344	126	587989.83324439
2	3024082	127	587989.753063
2	3038936	128	587989.67409016
2	3056370	129	587989.59464344
2	3069468	130	587989.51615622
2	3080507	131	587989.43796463
2	3104132	132	587989.35748636
2	3119319	133	587989.27849213
2	3134107	134	587989.19951933
2	3147375	135	587989.12082093
2	3167119	136	587989.04109376
2	3178786	137	587988.96277207
2	3197004	138	587988.88325755
2	3207869	139	587988.8050747
2	3220021	140	587988.72662567
2	3237627	141	587988.64726363
2	3254017	142	587988.5678859
2	3271443	143	587988.48854927
2	3292070	144	587988.40515816
2	3306443	145	587988.32389315
2	3318400	146	587988.24550887
2	3335004	147	587988.16624931
2	3351114	148	587988.0870286
2	3364909	149	587988.00821412
2	3378656	150	587987.92974957
2	3388761	151	587987.85168651
2	3406613	152	587987.77219311
2	3425536	153	587987.69238633
2	3442977	154	587987.61301461
2	3454974	155	587987.53476294
2	3468267	156	587987.45612169
2	3486670	157	587987.37648319
2	3506068	158	587987.29678113
2	3517967	159	587987.21851782
2	3538417	160	587987.13847883
2	3558008	161	587987.05811011
2	3577559	162	587986.97450371
2	3593544	163	587986.89540843
2	3607997	164	587986.81656765
2	3621047	165	587986.73790192
2	3635573	166	587986.65907588
2	3644412	167	587986.58125754
2	3663945	168	587986.50142658
2	3684812	169	587986.42149736
2	3693245	170	587986.34370189
2	3707851	171	587986.264769
2	3726641	172	587986.18510126
2	3744447	173	587986.10564958
2	3759561	174	587986.02672169
2	3774920	175	587985.94774155
2	3792459	176	587985.86811034
2	3814653	177	587985.78195524
2	3827869	178	587985.70319825
2	3845198	179	587985.62374106
2	3858721	180	587985.5449691
2	3877440	181	587985.46527943
2	3891851	182	587985.38651037
2	3903419	183	587985.30819971
2	3913441	184	587985.23009194
2	3931935	185	587985.15053648
2	3947492	186	587985.0715843
2	3966083	187	587984.99189436
2	3986949	188	587984.91184337
2	4003447	189	587984.83262879
2	4022028	190	587984.75292583
2	4037441	191	587984.67391799
2	4051813	192	587984.59509153
2	4069208	193	587984.51569857
2	4084239	194	587984.43678026
2	4105059	195	587984.3507167
2	4118650	196	587984.27202128
2	4133878	197	587984.19313731
2	4157980	198	587984.10778593
2	4176837	199	587984.02817021
2	4191964	200	587983.94934255
2	4214248	201	587983.86349242
2	4237459	202	587983.77941234
2	4253302	203	587983.70011277
2	4275555	204	587983.61977612
2	4298992	205	587983.53941312
2	4315218	206	587983.46019982
2	4336084	207	587983.37997094
2	4353135	208	587983.30060694
2	4375249	209	587983.22043596
2	4387459	210	587983.14197658
2	4404652	211	587983.06255437
2	4419378	212	587982.98357375
2	4434002	213	587982.90454819
2	4448414	214	587982.82570039
2	4465063	215	587982.74648049
2	4484810	216	587982.66654847
2	4504142	217	587982.58684304
2	4520906	218	587982.50734296
2	4534991	219	587982.42843828
2	4550940	220	587982.34934679
2	4566667	221	587982.27019815
2	4587143	222	587982.19018125
2	4596747	223	587982.112141
2	4612081	224	587982.03294714
2	4627249	225	587981.9539946
2	4643634	226	587981.87475733
2	4657029	227	587981.79597197
2	4670253	228	587981.7172379
2	4683329	229	587981.63872509
2	4697133	230	587981.55988591
2	4715050	231	587981.48039319
2	4732599	232	587981.40118381
2	4749923	233	587981.32183962
2	4764806	234	587981.2428759
2	4776114	235	587981.16454881
2	4792314	236	587981.0853209
2	4808386	237	587981.00620393
2	4819230	238	587980.92801631
2	4834858	239	587980.84880806
2	4845333	240	587980.77058602
2	4865517	241	587980.69085023
2	4874425	242	587980.61304362
2	4885797	243	587980.534795
2	4895140	244	587980.45686129
2	4905976	245	587980.37861169
2	4920163	246	587980.29986794
2	4932313	247	587980.22138298
2	4942092	248	587980.14330514
2	4958977	249	587980.06403094
2	4977039	250	587979.97869288
2	4989411	251	587979.90018334
2	5000434	252	587979.8219486
2	5015843	253	587979.74285099
2	5028264	254	587979.66432408
2	5039558	255	587979.58608464
2	5051162	256	587979.50775138
2	5069329	257	587979.42450395
2	5082582	258	587979.34529973
2	5096781	259	587979.26656964
2	5106690	260	587979.18853519
2	5118629	261	587979.11013084
2	5131323	262	587979.0315652
2	5145574	263	587978.95271272
2	5156591	264	587978.87438773
2	5169046	265	587978.79591714
2	5179857	266	587978.71767059
2	5190063	267	587978.63960512
2	5199525	268	587978.56168099
2	5212508	269	587978.48316727
2	5221880	270	587978.40523692
2	5233391	271	587978.32686034
2	5243225	272	587978.24884093
2	5257872	273	587978.17004498
2	5271319	274	587978.09137191
2	5278566	275	587978.01379111
2	5292486	276	587977.9351121
2	5305200	277	587977.85657468
2	5316554	278	587977.77834298
2	5325799	279	587977.70033448
2	5332683	280	587977.62289727
2	5341476	281	587977.54505197
2	5349940	282	587977.46728997
2	5357228	283	587977.38960253
2	5368574	284	587977.31145797
2	5376777	285	587977.23380568
2	5385240	286	587977.15605006
2	5390716	287	587977.07877846
2	5403833	288	587977.00013167
2	5411349	289	587976.92262882
2	5425815	290	587976.84383776
2	5438760	291	587976.75959346
2	5447682	292	587976.68155038
2	5455503	293	587976.60379862
2	5465457	294	587976.52588724
2	5473354	295	587976.44818742
2	5489935	296	587976.36899501
2	5498387	297	587976.29124678
2	5511738	298	587976.21269694
2	5522473	299	587976.13462238
2	5534449	300	587976.05626094
2	5542524	301	587975.97848585
2	5554156	302	587975.89919776
2	5568441	303	587975.81547226
2	5579491	304	587975.73721291
2	5591194	305	587975.65884301
2	5599095	306	587975.58111346
2	5613277	307	587975.49185956
2	5625897	308	587975.41337611
2	5634174	309	587975.33567889
2	5642640	310	587975.25796504
2	5653977	311	587975.17965387
2	5664160	312	587975.10151205
2	5673303	313	587975.02372445
2	5687913	314	587974.94491264
2	5701740	315	587974.86617144
2	5707614	316	587974.78888838
2	5725172	317	587974.70965132
2	5738551	318	587974.63102537
2	5753374	319	587974.55221101
2	5769430	320	587974.47302554
2	5781960	321	587974.39444428
2	5800266	322	587974.31488661
2	5807955	323	587974.23732054
2	5824585	324	587974.15517965
2	5836226	325	587974.0768484
2	5851522	326	587973.99190087
2	5868980	327	587973.91067576
2	5882767	328	587973.82783534
2	5890399	329	587973.75019124
2	5903174	330	587973.67154238
2	5914884	331	587973.59324776
2	5924956	332	587973.51509755
2	5936257	333	587973.43686165
2	5945195	334	587973.35906546
2	5955498	335	587973.28100007
2	5963908	336	587973.2032229
2	5971960	337	587973.12552392
2	5983486	338	587973.04716663
2	5993405	339	587972.96902392
2	6004697	340	587972.89077626
2	6018524	341	587972.81191186
2	6028167	342	587972.7340491
2	6039025	343	587972.6559138
2	6054511	344	587972.57435144
2	6066845	345	587972.49249794
2	6076595	346	587972.41450139
2	6085081	347	587972.33676597
2	6102388	348	587972.25754582
2	6111302	349	587972.1795848
2	6120680	350	587972.10163972
2	6131881	351	587972.02318652
2	6145387	352	587971.94447
2	6159390	353	587971.86570628
2	6168883	354	587971.78778694
2	6179737	355	587971.70951517
2	6188382	356	587971.63176693
2	6197917	357	587971.55389517
2	6210771	358	587971.47521841
2	6223234	359	587971.39660058
2	6238253	360	587971.31769868
2	6248890	361	587971.23942079
2	6266257	362	587971.16006553
2	6273563	363	587971.0826197
2	6284418	364	587971.00434997
2	6295898	365	587970.92607515
2	6304719	366	587970.84821634
2	6318555	367	587970.76955392
2	6327612	368	587970.69169302
2	6336588	369	587970.61374226
2	6350169	370	587970.53502134
2	6358580	371	587970.45723109
2	6366323	372	587970.37949421
2	6376061	373	587970.30142048
2	6382118	374	587970.22419472
2	6394400	375	587970.14574118
2	6404818	376	587970.06764052
2	6416976	377	587969.9891223
2	6429977	378	587969.91043632
2	6443214	379	587969.83187582
2	6453799	380	587969.75369012
2	6464006	381	587969.6755865
2	6473064	382	587969.59765654
2	6482574	383	587969.51984706
2	6495984	384	587969.44128184
2	6504429	385	587969.36339153
2	6514279	386	587969.28554259
2	6523288	387	587969.20767585
2	6530352	388	587969.13019558
2	6542318	389	587969.05181432
2	6555531	390	587968.97326527
2	6571831	391	587968.89316464
2	6586307	392	587968.80461129
2	6603081	393	587968.72396639
2	6614172	394	587968.64564426
2	6630480	395	587968.56398683
2	6644563	396	587968.48281733
2	6652076	397	587968.40525494
2	6663438	398	587968.32704035
2	6673804	399	587968.24892427
2	6683654	400	587968.17088428
2	6703066	401	587968.08964389
2	6718356	402	587968.00776339
2	6725095	403	587967.93036031
2	6742525	404	587967.85095309
2	6753439	405	587967.77268417
2	6766280	406	587967.69404291
2	6775641	407	587967.61615894
2	6784709	408	587967.53822053
2	6795139	409	587967.46011915
2	6807740	410	587967.38158084
2	6821998	411	587967.30271116
2	6832227	412	587967.22449237
2	6839719	413	587967.1469708
2	6853448	414	587967.06815892
2	6867756	415	587966.98923969
2	6881567	416	587966.91055893
2	6893935	417	587966.83197876
2	6903669	418	587966.75406588
2	6915492	419	587966.67568625
2	6928181	420	587966.59718553
2	6936112	421	587966.51955893
2	6952705	422	587966.43604082
2	6965093	423	587966.35612301
2	6973715	424	587966.27825581
2	6984727	425	587966.19999563
2	6996032	426	587966.12175413
2	7005329	427	587966.04375305
2	7014712	428	587965.96585976
2	7033073	429	587965.88632838
2	7043004	430	587965.80823748
2	7061260	431	587965.72882731
2	7078431	432	587965.6495593
2	7086330	433	587965.57176457
2	7102378	434	587965.49279487
2	7107400	435	587965.41565117
2	7116353	436	587965.33782296
2	7136367	437	587965.25813014
2	7148184	438	587965.17976105
2	7162112	439	587965.10093488
2	7174876	440	587965.02228457
2	7185109	441	587964.9441967
2	7195070	442	587964.86538379
2	7210092	443	587964.78418712
2	7217055	444	587964.70664761
2	7225882	445	587964.6288771
2	7238034	446	587964.55054766
2	7248764	447	587964.47238472
2	7258314	448	587964.39454665
2	7270983	449	587964.31599078
2	7276701	450	587964.23875998
2	7287193	451	587964.16060921
2	7298003	452	587964.08233911
2	7307408	453	587964.00426682
2	7324239	454	587963.92500579
2	7337681	455	587963.8464086
2	7348261	456	587963.76828527
2	7357674	457	587963.69037629
2	7365809	458	587963.61259203
2	7375382	459	587963.53461934
2	7384725	460	587963.45676785
2	7395623	461	587963.37861612
2	7408832	462	587963.29997902
2	7422454	463	587963.22138585
2	7434315	464	587963.14304076
2	7439342	465	587963.06592368
2	7446928	466	587962.98819818
2	7455850	467	587962.91038935
2	7462719	468	587962.83296116
2	7472164	469	587962.75495786
2	7479554	470	587962.67734394
2	7491812	471	587962.59888415
2	7502943	472	587962.52058737
2	7511556	473	587962.44285259
2	7522320	474	587962.36470457
2	7533080	475	587962.28655251
2	7542818	476	587962.20857869
2	7551717	477	587962.13065833
2	7562259	478	587962.05249334
2	7576266	479	587961.9737482
2	7587368	480	587961.89552343
2	7598714	481	587961.81726166
2	7609720	482	587961.73917658
2	7621140	483	587961.66084141
2	7639230	484	587961.57691516
2	7650006	485	587961.49684557
2	7656690	486	587961.41937851
2	7664382	487	587961.34177173
2	7675490	488	587961.26344365
2	7682318	489	587961.18595073
2	7686315	490	587961.10902212
2	7696377	491	587961.03108515
2	7705818	492	587960.95321911
2	7716769	493	587960.87498226
2	7723119	494	587960.79757017
2	7728999	495	587960.72033209
2	7739591	496	587960.64221395
2	7744750	497	587960.56501371
2	7748111	498	587960.48811129
2	7756553	499	587960.41023371
2	7763115	500	587960.3327916
2	7770332	501	587960.25523429
2	7781014	502	587960.17708719
2	7791483	503	587960.09887244
2	7799717	504	587960.02111498
2	7809346	505	587959.94314571
2	7822166	506	587959.86468025
2	7832013	507	587959.78658836
2	7841104	508	587959.70873771
2	7846932	509	587959.63139378
2	7856480	510	587959.55347343
2	7863644	511	587959.47598674
2	7869101	512	587959.39868886
2	7877555	513	587959.32085567
2	7881783	514	587959.24380802
2	7886330	515	587959.1666205
2	7891878	516	587959.08935504
2	7898024	517	587959.01203018
2	7905020	518	587958.93456521
2	7913441	519	587958.85681952
2	7920787	520	587958.77924577
2	7926842	521	587958.70193466
2	7931871	522	587958.62477088
2	7937397	523	587958.54749281
2	7947795	524	587958.46926306
2	7954658	525	587958.39178127
2	7963046	526	587958.31397445
2	7970748	527	587958.2364556
2	7977883	528	587958.15889813
2	7986797	529	587958.08104373
2	7994793	530	587958.00339465
2	8002464	531	587957.92578231
2	8006319	532	587957.84888915
2	8010915	533	587957.77187922
2	8025988	534	587957.69305481
2	8032357	535	587957.61574002
2	8037829	536	587957.53854596
2	8048167	537	587957.46050998
2	8057343	538	587957.38256622
2	8062987	539	587957.30531723
2	8069902	540	587957.22777317
2	8079201	541	587957.14994896
2	8086405	542	587957.07244481
2	8090913	543	587956.99537249
2	8098361	544	587956.91783038
2	8103838	545	587956.84055229
2	8112580	546	587956.76278783
2	8122370	547	587956.68466055
2	8130427	548	587956.60703452
2	8133954	549	587956.53013836
2	8141213	550	587956.45262122
2	8149569	551	587956.37479966
2	8154447	552	587956.29780667
2	8160446	553	587956.22046933
2	8171073	554	587956.13646691
2	8176955	555	587956.0591505
2	8182250	556	587955.98198334
2	8191724	557	587955.90407829
2	8201663	558	587955.82606173
2	8208083	559	587955.74856887
2	8214694	560	587955.67113593
2	8224261	561	587955.59314564
2	8233358	562	587955.51523813
2	8238585	563	587955.43811407
2	8247088	564	587955.36035459
2	8257501	565	587955.28233141
2	8267372	566	587955.20429375
2	8278934	567	587955.12605952
2	8284521	568	587955.04881077
2	8295315	569	587954.96454551
2	8303160	570	587954.88689925
2	8309172	571	587954.80959995
2	8320153	572	587954.73154947
2	8335712	573	587954.6525518
2	8341233	574	587954.57532444
2	8352804	575	587954.49706702
2	8363317	576	587954.41910182
2	8371291	577	587954.34153115
2	8378262	578	587954.26409667
2	8385632	579	587954.18652338
2	8390515	580	587954.1094278
2	8401258	581	587954.0313085
2	8409907	582	587953.95352392
2	8415157	583	587953.87640939
2	8421653	584	587953.79902282
2	8430768	585	587953.71669452
2	8440157	586	587953.63729588
2	8444537	587	587953.56031328
2	8455835	588	587953.48215768
2	8467422	589	587953.40390439
2	8473405	590	587953.32628006
2	8488362	591	587953.24269
2	8491418	592	587953.16587942
2	8504490	593	587953.08731102
2	8508023	594	587953.01043326
2	8515859	595	587952.93278503
2	8531253	596	587952.85392121
2	8541635	597	587952.77585141
2	8544817	598	587952.69909766
2	8553195	599	587952.62132956
2	8564019	600	587952.54327062
2	8572474	601	587952.46546601
2	8582388	602	587952.38744139
2	8588146	603	587952.3102283
2	8603706	604	587952.22772611
2	8612124	605	587952.14780294
2	8619878	606	587952.07021798
2	8627347	607	587951.99271968
2	8633386	608	587951.91534824
2	8644617	609	587951.83712112
2	8652889	610	587951.75933081
2	8663915	611	587951.68123557
2	8675783	612	587951.60283971
2	8682116	613	587951.52551794
2	8692716	614	587951.4472903
2	8698482	615	587951.37008959
2	8706771	616	587951.29237593
2	8720941	617	587951.21359606
2	8733680	618	587951.13515508
2	8740728	619	587951.05765047
2	8745123	620	587950.9806424
2	8752434	621	587950.90313862
2	8762946	622	587950.82516148
2	8775229	623	587950.74687665
2	8785249	624	587950.66867626
2	8794680	625	587950.59082062
2	8799748	626	587950.51367236
2	8813785	627	587950.43490506
2	8819459	628	587950.35767423
2	8830370	629	587950.27942419
2	8839507	630	587950.20167117
2	8846411	631	587950.12417994
2	8859193	632	587950.04569035
2	8868138	633	587949.96794132
2	8876116	634	587949.89038577
2	8889598	635	587949.81165617
2	8895471	636	587949.73444987
2	8902430	637	587949.65706152
2	8914813	638	587949.57871916
2	8922926	639	587949.50111093
2	8929314	640	587949.42366736
2	8935341	641	587949.34630163
2	8942881	642	587949.26876343
2	8947779	643	587949.19170696
2	8952067	644	587949.11468072
2	8956973	645	587949.03750155
2	8965570	646	587948.95979046
2	8970079	647	587948.88273458
2	8977520	648	587948.80516084
2	8982951	649	587948.72793507
2	8989405	650	587948.65054718
2	8995230	651	587948.5732666
2	8997163	652	587948.49662176
2	9003299	653	587948.41931022
2	9014524	654	587948.34099162
2	9027228	655	587948.26232696
2	9033308	656	587948.18499558
2	9040947	657	587948.10742302
2	9051653	658	587948.02928745
2	9055980	659	587947.95230721
2	9064474	660	587947.87442742
2	9072342	661	587947.79675943
2	9079218	662	587947.71931114
2	9085248	663	587947.64188428
2	9093273	664	587947.56415708
2	9100159	665	587947.48676144
2	9105395	666	587947.40967991
2	9109301	667	587947.33278424
2	9117997	668	587947.25513738
2	9125003	669	587947.1777674
2	9133864	670	587947.09995306
2	9142415	671	587947.02215725
2	9150149	672	587946.94457829
2	9156986	673	587946.86713066
2	9159016	674	587946.79052907
2	9169978	675	587946.71245326
2	9175701	676	587946.63518559
2	9183444	677	587946.55756122
2	9192839	678	587946.47971045
2	9200895	679	587946.40206868
2	9206482	680	587946.32482465
2	9212391	681	587946.24757734
2	9223041	682	587946.16942588
2	9230224	683	587946.09178815
2	9236811	684	587946.01438008
2	9243479	685	587945.93688178
2	9257055	686	587945.85831206
2	9263626	687	587945.78090736
2	9274710	688	587945.702705
2	9283523	689	587945.62496279
2	9287775	690	587945.5479713
2	9291172	691	587945.47113025
2	9295994	692	587945.39398453
2	9300939	693	587945.31694403
2	9308251	694	587945.23942276
2	9315711	695	587945.16181059
2	9323311	696	587945.08422119
2	9330940	697	587945.00656687
2	9342797	698	587944.92829447
2	9346625	699	587944.85138382
2	9356450	700	587944.77340042
2	9360620	701	587944.69645023
2	9366757	702	587944.61908448
2	9371562	703	587944.5420192
2	9377978	704	587944.46467006
2	9382374	705	587944.38761419
2	9388365	706	587944.31034469
2	9398574	707	587944.23227114
2	9412835	708	587944.15351612
2	9418552	709	587944.07614116
2	9427467	710	587943.99835372
2	9433297	711	587943.92105825
2	9442853	712	587943.84301526
2	9453835	713	587943.76492959
2	9460095	714	587943.68757625
2	9467520	715	587943.6100362
2	9473990	716	587943.53262005
2	9478094	717	587943.45564676
2	9486987	718	587943.37787622
2	9492346	719	587943.30065118
2	9496273	720	587943.22369853
2	9499974	721	587943.14681254
2	9505972	722	587943.06952255
2	9512266	723	587942.99216648
2	9517381	724	587942.91499364
2	9520149	725	587942.83835402
2	9526139	726	587942.76113643
2	9531312	727	587942.68391976
2	9536536	728	587942.60674674
2	9546308	729	587942.52876398
2	9550950	730	587942.45164296
2	9564380	731	587942.36739888
2	9569102	732	587942.29040588
2	9577566	733	587942.21272431
2	9580119	734	587942.13600821
2	9591283	735	587942.05351747
2	9596459	736	587941.97497594
2	9602256	737	587941.89772914
2	9616138	738	587941.8189519
2	9623555	739	587941.74132044
2	9630073	740	587941.66384687
2	9635724	741	587941.5865606
2	9644347	742	587941.50876138
2	9652536	743	587941.43114228
2	9659852	744	587941.35360067
2	9664139	745	587941.27658364
2	9671484	746	587941.19910491
2	9678120	747	587941.12165325
2	9690288	748	587941.04132841
2	9699472	749	587940.96105924
2	9708287	750	587940.88317788
2	9720683	751	587940.80469626
2	9731338	752	587940.72662559
2	9738246	753	587940.64914089
2	9744568	754	587940.5716868
2	9756649	755	587940.4933131
2	9762355	756	587940.41610074
2	9771861	757	587940.33825918
2	9783708	758	587940.25960428
2	9793386	759	587940.17589421
2	9799187	760	587940.09868141
2	9807204	761	587940.02097322
2	9814438	762	587939.94347795
2	9828968	763	587939.86461917
2	9837181	764	587939.78692345
2	9847203	765	587939.7090155
2	9854371	766	587939.63137871
2	9862639	767	587939.55367358
2	9868851	768	587939.4763474
2	9876150	769	587939.39871844
2	9886281	770	587939.3206752
2	9892281	771	587939.24340635
2	9897397	772	587939.16624992
2	9904067	773	587939.08879358
2	9917094	774	587939.01023848
2	9921474	775	587938.93324195
2	9929961	776	587938.85535196
2	9935383	777	587938.7781262
2	9945146	778	587938.70015373
2	9954132	779	587938.62218918
2	9963337	780	587938.54427977
2	9971738	781	587938.46657655
2	9975210	782	587938.38967412
2	9981331	783	587938.31225747
2	9987802	784	587938.23486183
2	9992742	785	587938.15780602
2	10001924	786	587938.07973706
2	10007226	787	587938.00252144
2	10016884	788	587937.92472121
2	10026592	789	587937.84670262
2	10031955	790	587937.76947819
2	10034782	791	587937.69272132
2	10043912	792	587937.61484989
2	10052523	793	587937.53695281
2	10057636	794	587937.45976529
2	10063087	795	587937.38248485
2	10069259	796	587937.30508098
2	10077812	797	587937.22728901
2	10085927	798	587937.14960193
2	10090963	799	587937.07238439
2	10093464	800	587936.99567651
2	10101892	801	587936.91789122
2	10112854	802	587936.83964485
2	10118856	803	587936.76228115
2	10123252	804	587936.68522528
2	10128057	805	587936.60809953
2	10132364	806	587936.53106514
2	10137430	807	587936.45389552
2	10143535	808	587936.37655797
2	10148501	809	587936.29941159
2	10154938	810	587936.22201594
2	10161241	811	587936.1446203
2	10165742	812	587936.06760769
2	10178468	813	587935.98333335
2	10187519	814	587935.90543257
2	10194406	815	587935.82789753
2	10202855	816	587935.75007584
2	10211097	817	587935.67229626
2	10217214	818	587935.5948477
2	10223079	819	587935.51765034
2	10228795	820	587935.44048304
2	10239075	821	587935.36233414
2	10245803	822	587935.28489906
2	10250885	823	587935.20769378
2	10258303	824	587935.13011759
2	10266781	825	587935.052431
2	10279012	826	587934.97399914
2	10282450	827	587934.89717741
2	10290894	828	587934.81956695
2	10299872	829	587934.74174804
2	10308104	830	587934.66411281
2	10315517	831	587934.58659582
2	10319352	832	587934.50964872
2	10325936	833	587934.43223663
2	10331485	834	587934.35498013
2	10336049	835	587934.27791604
2	10339622	836	587934.20097975
2	10347882	837	587934.12325256
2	10357724	838	587934.04524998
2	10363916	839	587933.96791592
2	10371529	840	587933.89032009
2	10378346	841	587933.81294313
2	10386119	842	587933.7353177
2	10389201	843	587933.65849611
2	10396784	844	587933.58090954
2	10403785	845	587933.50342484
2	10410487	846	587933.42610462
2	10416191	847	587933.34881881
2	10425913	848	587933.27089012
2	10436082	849	587933.19296433
2	10443200	850	587933.11553747
2	10446916	851	587933.03868179
2	10452341	852	587932.96144781
2	10455652	853	587932.88457004
2	10461604	854	587932.8071555
2	10469074	855	587932.72967855
2	10471716	856	587932.65293826
2	10480486	857	587932.57516835
2	10484969	858	587932.4981437
2	10493803	859	587932.4204073
2	10497921	860	587932.34343877
2	10505115	861	587932.26587834
2	10516937	862	587932.18754678
2	10525215	863	587932.10983502
2	10534115	864	587932.03212909
2	10539924	865	587931.95481935
2	10543707	866	587931.87790049
2	10552896	867	587931.80002126
2	10560884	868	587931.72232968
2	10568819	869	587931.6447092
2	10574172	870	587931.56750087
2	10579153	871	587931.49034918
2	10584786	872	587931.41304344
2	10597697	873	587931.32983686
2	10602298	874	587931.25272491
2	10608666	875	587931.17528056
2	10614290	876	587931.09809088
2	10619094	877	587931.02100438
2	10625421	878	587930.94364407
2	10633377	879	587930.86589159
2	10638284	880	587930.78879047
2	10640785	881	587930.71208259
2	10647772	882	587930.63459141
2	10653965	883	587930.55734738
2	10660487	884	587930.47995996
2	10667343	885	587930.40258671
2	10672021	886	587930.32552262
2	10675614	887	587930.24863663
2	10683149	888	587930.17094237
2	10688436	889	587930.09366058
2	10696140	890	587930.0160422
2	10703771	891	587929.9384559
2	10709143	892	587929.86122192
2	10711698	893	587929.78450582
2	10714199	894	587929.70779793
2	10723100	895	587929.63004466
2	10730228	896	587929.55256668
2	10737678	897	587929.47500937
2	10740519	898	587929.39829767
2	10745026	899	587929.32124179
2	10748150	900	587929.24438355
2	10756596	901	587929.16671389
2	10763138	902	587929.08928762
2	10768711	903	587929.01199532
2	10777183	904	587928.93428313
2	10785134	905	587928.85663876
2	10788961	906	587928.77967504
2	10797197	907	587928.70195191
2	10808855	908	587928.62357163
2	10819385	909	587928.54126608
2	10823969	910	587928.46410727
2	10830969	911	587928.38664805
2	10838237	912	587928.30913192
2	10841347	913	587928.23233789
2	10843938	914	587928.15566353
2	10850043	915	587928.07838335
2	10853426	916	587928.00153953
2	10860180	917	587927.92416776
2	10866665	918	587927.84675017
2	10869938	919	587927.76995738
2	10874424	920	587927.69280985
2	10883232	921	587927.61501811
2	10889764	922	587927.53763713
2	10893495	923	587927.46073166
2	10899188	924	587927.38348113
2	10907550	925	587927.30577119
2	10910228	926	587927.2290395
2	10913021	927	587927.15230543
2	10920576	928	587927.07466537
2	10928846	929	587926.99697231
2	10934858	930	587926.91958601
2	10940984	931	587926.84217725
2	10944162	932	587926.76536252
2	10950345	933	587926.68797509
2	10954854	934	587926.61091922
2	10960808	935	587926.53353179
2	10962385	936	587926.45699379
2	10967497	937	587926.37979862
2	10974184	938	587926.30238677
2	10977068	939	587926.22559215
2	10984762	940	587926.14794347
2	10992564	941	587926.07021627
2	10999356	942	587925.99278025
2	11004907	943	587925.91544773
2	11009329	944	587925.83836911
2	11015161	945	587925.76115156
2	11018103	946	587925.68439579
2	11021887	947	587925.60739602
2	11024385	948	587925.53068814
2	11027053	949	587925.45397203
2	11034312	950	587925.37642122
2	11041460	951	587925.29884042
2	11044036	952	587925.22212487
2	11050337	953	587925.14477191
2	11056651	954	587925.0673636
2	11062785	955	587924.99003015
2	11069969	956	587924.91253816
2	11074151	957	587924.83556002
2	11077792	958	587924.75866581
2	11083003	959	587924.68158515
2	11086717	960	587924.6046115
2	11091535	961	587924.52746184
2	11096040	962	587924.45034545
2	11099628	963	587924.37345946
2	11105220	964	587924.29572421
2	11112196	965	587924.21445087
2	11117961	966	587924.13726193
2	11122624	967	587924.06017207
2	11128273	968	587923.98287989
2	11135327	969	587923.90540216
2	11140369	970	587923.82827887
2	11146379	971	587923.75107731
2	11154227	972	587923.6734792
2	11160919	973	587923.5960978
2	11164711	974	587923.51917756
2	11171179	975	587923.44179187
2	11177381	976	587923.36445186
2	11183020	977	587923.28723308
2	11185746	978	587923.21052519
2	11190351	979	587923.13333653
2	11196355	980	587923.05598777
2	11199355	981	587922.9791959
2	11209742	982	587922.90123895
2	11214826	983	587922.82410374
2	11221328	984	587922.74672642